 Entering Gaussian System, Link 0=g16
 Initial command:
 /opt/software/g16/l1.exe "/tmp/butadiene-sgp-16516.tmp/Gau-14238.inp" -scrdir="/tmp/butadiene-sgp-16516.tmp/"
 Entering Link 1 = /opt/software/g16/l1.exe PID=     14239.
  
 Copyright (c) 1988-2017, Gaussian, Inc.  All Rights Reserved.
  
 This is part of the Gaussian(R) 16 program.  It is based on
 the Gaussian(R) 09 system (copyright 2009, Gaussian, Inc.),
 the Gaussian(R) 03 system (copyright 2003, Gaussian, Inc.),
 the Gaussian(R) 98 system (copyright 1998, Gaussian, Inc.),
 the Gaussian(R) 94 system (copyright 1995, Gaussian, Inc.),
 the Gaussian 92(TM) system (copyright 1992, Gaussian, Inc.),
 the Gaussian 90(TM) system (copyright 1990, Gaussian, Inc.),
 the Gaussian 88(TM) system (copyright 1988, Gaussian, Inc.),
 the Gaussian 86(TM) system (copyright 1986, Carnegie Mellon
 University), and the Gaussian 82(TM) system (copyright 1983,
 Carnegie Mellon University). Gaussian is a federally registered
 trademark of Gaussian, Inc.
  
 This software contains proprietary and confidential information,
 including trade secrets, belonging to Gaussian, Inc.
  
 This software is provided under written license and may be
 used, copied, transmitted, or stored only in accord with that
 written license.
  
 The following legend is applicable only to US Government
 contracts under FAR:
  
                    RESTRICTED RIGHTS LEGEND
  
 Use, reproduction and disclosure by the US Government is
 subject to restrictions as set forth in subparagraphs (a)
 and (c) of the Commercial Computer Software - Restricted
 Rights clause in FAR 52.227-19.
  
 Gaussian, Inc.
 340 Quinnipiac St., Bldg. 40, Wallingford CT 06492
  
  
 ---------------------------------------------------------------
 Warning -- This program may not be used in any manner that
 competes with the business of Gaussian, Inc. or will provide
 assistance to any competitor of Gaussian, Inc.  The licensee
 of this program is prohibited from giving any competitor of
 Gaussian, Inc. access to this program.  By using this program,
 the user acknowledges that Gaussian, Inc. is engaged in the
 business of creating and licensing software in the field of
 computational chemistry and represents and warrants to the
 licensee that it is not a competitor of Gaussian, Inc. and that
 it will not use this program in any manner prohibited above.
 ---------------------------------------------------------------
  

 Cite this work as:
 Gaussian 16, Revision B.01,
 M. J. Frisch, G. W. Trucks, H. B. Schlegel, G. E. Scuseria, 
 M. A. Robb, J. R. Cheeseman, G. Scalmani, V. Barone, 
 G. A. Petersson, H. Nakatsuji, X. Li, M. Caricato, A. V. Marenich, 
 J. Bloino, B. G. Janesko, R. Gomperts, B. Mennucci, H. P. Hratchian, 
 J. V. Ortiz, A. F. Izmaylov, J. L. Sonnenberg, D. Williams-Young, 
 F. Ding, F. Lipparini, F. Egidi, J. Goings, B. Peng, A. Petrone, 
 T. Henderson, D. Ranasinghe, V. G. Zakrzewski, J. Gao, N. Rega, 
 G. Zheng, W. Liang, M. Hada, M. Ehara, K. Toyota, R. Fukuda, 
 J. Hasegawa, M. Ishida, T. Nakajima, Y. Honda, O. Kitao, H. Nakai, 
 T. Vreven, K. Throssell, J. A. Montgomery, Jr., J. E. Peralta, 
 F. Ogliaro, M. J. Bearpark, J. J. Heyd, E. N. Brothers, K. N. Kudin, 
 V. N. Staroverov, T. A. Keith, R. Kobayashi, J. Normand, 
 K. Raghavachari, A. P. Rendell, J. C. Burant, S. S. Iyengar, 
 J. Tomasi, M. Cossi, J. M. Millam, M. Klene, C. Adamo, R. Cammi, 
 J. W. Ochterski, R. L. Martin, K. Morokuma, O. Farkas, 
 J. B. Foresman, and D. J. Fox, Gaussian, Inc., Wallingford CT, 2016.
 
 ******************************************
 Gaussian 16:  ES64L-G16RevB.01 20-Dec-2017
                22-Jan-2021 
 ******************************************
 %nproc=16
 Will use up to   16 processors via shared memory.
 %chk=butadiene-sgp
 ---------------------------
 # B3LYP/6-31G* POP=NBO6Read
 ---------------------------
 1/38=1,163=2,172=1/1;
 2/12=2,17=6,18=5,40=1/2;
 3/5=1,6=6,7=1,11=2,25=1,30=1,74=-5/1,2,3;
 4//1;
 5/5=2,38=5/2;
 6/7=2,8=2,9=2,10=2,28=1,40=2,113=1,114=1,124=2103/1,12;
 99/5=1,9=1/99;
 --------------------------------
 1,3-butadiene single-point calc.
 --------------------------------
 Symbolic Z-matrix:
 Charge =  0 Multiplicity = 1
 6                     1.33992  -0.92255   0. 
 6                     0.       -0.92648   0. 
 6                    -0.89436   0.24189   0. 
 6                    -0.54072   1.53431   0. 
 1                     1.92168  -0.00403   0. 
 1                     1.90452  -1.85005   0. 
 1                    -0.50663  -1.89119   0. 
 1                    -1.95788   0.0047    0. 
 1                     0.49784   1.85604   0. 
 1                    -1.28862   2.3215    0. 
 
                          Input orientation:                          
 ---------------------------------------------------------------------
 Center     Atomic      Atomic             Coordinates (Angstroms)
 Number     Number       Type             X           Y           Z
 ---------------------------------------------------------------------
      1          6           0        1.339919   -0.922552    0.000000
      2          6           0        0.000000   -0.926478    0.000000
      3          6           0       -0.894356    0.241893    0.000000
      4          6           0       -0.540716    1.534311    0.000000
      5          1           0        1.921683   -0.004033    0.000000
      6          1           0        1.904522   -1.850053    0.000000
      7          1           0       -0.506630   -1.891193    0.000000
      8          1           0       -1.957882    0.004699    0.000000
      9          1           0        0.497843    1.856036    0.000000
     10          1           0       -1.288622    2.321503    0.000000
 ---------------------------------------------------------------------
                    Distance matrix (angstroms):
                    1          2          3          4          5
     1  C    0.000000
     2  C    1.339925   0.000000
     3  C    2.519507   1.471381   0.000000
     4  C    3.094021   2.519495   1.339927   0.000000
     5  H    1.087256   2.131612   2.826757   2.903431   0.000000
     6  H    1.085834   2.116647   3.494275   4.175297   1.846100
     7  H    2.085188   1.089655   2.168038   3.425674   3.075399
     8  H    3.425680   2.168039   1.089655   2.085203   3.879575
     9  H    2.903385   2.826700   2.131590   1.087250   2.342472
    10  H    4.175299   3.494271   2.116654   1.085834   3.964111
                    6          7          8          9         10
     6  H    0.000000
     7  H    2.411503   0.000000
     8  H    4.284655   2.387580   0.000000
     9  H    3.964069   3.879522   3.075392   0.000000
    10  H    5.253384   4.284661   2.411533   1.846109   0.000000
 Stoichiometry    C4H6
 Framework group  CS[SG(C4H6)]
 Deg. of freedom    17
 Full point group                 CS      NOp   2
 Largest Abelian subgroup         CS      NOp   2
 Largest concise Abelian subgroup C1      NOp   1
                         Standard orientation:                         
 ---------------------------------------------------------------------
 Center     Atomic      Atomic             Coordinates (Angstroms)
 Number     Number       Type             X           Y           Z
 ---------------------------------------------------------------------
      1          6           0        1.339919    0.922552    0.000000
      2          6           0       -0.000000    0.926478    0.000000
      3          6           0       -0.894356   -0.241893   -0.000000
      4          6           0       -0.540716   -1.534311   -0.000000
      5          1           0        1.921683    0.004033    0.000000
      6          1           0        1.904522    1.850053    0.000000
      7          1           0       -0.506630    1.891193    0.000000
      8          1           0       -1.957882   -0.004699   -0.000000
      9          1           0        0.497843   -1.856036   -0.000000
     10          1           0       -1.288622   -2.321503   -0.000000
 ---------------------------------------------------------------------
 Rotational constants (GHZ):          21.4916592           5.6170577           4.4531761
 Standard basis: 6-31G(d) (6D, 7F)
 There are    56 symmetry adapted cartesian basis functions of A'  symmetry.
 There are    16 symmetry adapted cartesian basis functions of A"  symmetry.
 There are    56 symmetry adapted basis functions of A'  symmetry.
 There are    16 symmetry adapted basis functions of A"  symmetry.
    72 basis functions,   136 primitive gaussians,    72 cartesian basis functions
    15 alpha electrons       15 beta electrons
       nuclear repulsion energy       104.4483319202 Hartrees.
 NAtoms=   10 NActive=   10 NUniq=   10 SFac= 1.00D+00 NAtFMM=   60 NAOKFM=F Big=F
 Integral buffers will be    131072 words long.
 Raffenetti 2 integral format.
 Two-electron integral symmetry is turned on.
 One-electron integrals computed using PRISM.
 NBasis=    72 RedAO= T EigKep=  2.87D-03  NBF=    56    16
 NBsUse=    72 1.00D-06 EigRej= -1.00D+00 NBFU=    56    16
 ExpMin= 1.61D-01 ExpMax= 3.05D+03 ExpMxC= 4.57D+02 IAcc=3 IRadAn=         5 AccDes= 0.00D+00
 Harris functional with IExCor=  402 and IRadAn=       5 diagonalized for initial guess.
 HarFok:  IExCor=  402 AccDes= 0.00D+00 IRadAn=         5 IDoV= 1 UseB2=F ITyADJ=14
 ICtDFT=  3500011 ScaDFX=  1.000000  1.000000  1.000000  1.000000
 FoFCou: FMM=F IPFlag=           0 FMFlag=      100000 FMFlg1=           0
         NFxFlg=           0 DoJE=T BraDBF=F KetDBF=T FulRan=T
         wScrn=  0.000000 ICntrl=       500 IOpCl=  0 I1Cent=   200000004 NGrid=           0
         NMat0=    1 NMatS0=      1 NMatT0=    0 NMatD0=    1 NMtDS0=    0 NMtDT0=    0
 Petite list used in FoFCou.
 Initial guess orbital symmetries:
       Occupied  (A') (A') (A') (A') (A') (A') (A') (A') (A') (A')
                 (A') (A') (A') (A") (A")
       Virtual   (A") (A") (A') (A') (A') (A') (A') (A') (A') (A')
                 (A') (A') (A") (A') (A') (A") (A") (A') (A') (A')
                 (A") (A') (A') (A') (A') (A') (A') (A') (A') (A')
                 (A') (A') (A") (A") (A") (A') (A") (A") (A') (A')
                 (A') (A') (A') (A") (A') (A') (A") (A') (A") (A')
                 (A') (A') (A') (A') (A') (A') (A')
 The electronic state of the initial guess is 1-A'.
 Keep R1 ints in memory in symmetry-blocked form, NReq=17821840.
 Requested convergence on RMS density matrix=1.00D-08 within 128 cycles.
 Requested convergence on MAX density matrix=1.00D-06.
 Requested convergence on             energy=1.00D-06.
 No special actions if energy rises.
 Integral accuracy reduced to 1.0D-05 until final iterations.
 Initial convergence to 1.0D-05 achieved.  Increase integral accuracy.
 SCF Done:  E(RB3LYP) =  -155.985951917     A.U. after   12 cycles
            NFock= 12  Conv=0.18D-08     -V/T= 2.0103

 **********************************************************************

            Population analysis using the SCF Density.

 **********************************************************************

 Orbital symmetries:
       Occupied  (A') (A') (A') (A') (A') (A') (A') (A') (A') (A')
                 (A') (A') (A') (A") (A")
       Virtual   (A") (A") (A') (A') (A') (A') (A') (A') (A') (A')
                 (A') (A') (A") (A') (A') (A") (A') (A") (A') (A')
                 (A") (A') (A') (A') (A') (A') (A') (A') (A') (A')
                 (A') (A') (A") (A") (A') (A") (A") (A") (A') (A')
                 (A') (A') (A') (A") (A') (A') (A") (A') (A") (A')
                 (A') (A') (A') (A') (A') (A') (A')
 The electronic state is 1-A'.
 Alpha  occ. eigenvalues --  -10.19202 -10.19171 -10.18282 -10.18282  -0.79824
 Alpha  occ. eigenvalues --   -0.72472  -0.61822  -0.52662  -0.48756  -0.43655
 Alpha  occ. eigenvalues --   -0.41617  -0.35979  -0.34786  -0.31707  -0.22733
 Alpha virt. eigenvalues --   -0.03015   0.09642   0.10083   0.11473   0.15316
 Alpha virt. eigenvalues --    0.19206   0.20164   0.21005   0.30620   0.34058
 Alpha virt. eigenvalues --    0.43251   0.46727   0.52744   0.53219   0.58678
 Alpha virt. eigenvalues --    0.59540   0.62692   0.64101   0.67720   0.68958
 Alpha virt. eigenvalues --    0.69326   0.83377   0.86035   0.88106   0.89353
 Alpha virt. eigenvalues --    0.93017   0.95614   0.98679   1.05508   1.07751
 Alpha virt. eigenvalues --    1.18333   1.23858   1.34036   1.45808   1.48272
 Alpha virt. eigenvalues --    1.52120   1.65585   1.75242   1.77710   1.87982
 Alpha virt. eigenvalues --    1.96074   2.00786   2.10515   2.16316   2.21993
 Alpha virt. eigenvalues --    2.25180   2.27871   2.54175   2.54999   2.55358
 Alpha virt. eigenvalues --    2.62110   2.86557   3.07913   4.06616   4.14857
 Alpha virt. eigenvalues --    4.20072   4.48265
          Condensed to atoms (all electrons):
               1          2          3          4          5          6
     1  C    5.057225   0.653690  -0.038766  -0.021275   0.364831   0.364742
     2  C    0.653690   4.753009   0.448158  -0.038765  -0.030980  -0.020413
     3  C   -0.038766   0.448158   4.753005   0.653691  -0.012451   0.004446
     4  C   -0.021275  -0.038765   0.653691   5.057226   0.005190   0.000081
     5  H    0.364831  -0.030980  -0.012451   0.005190   0.566516  -0.043073
     6  H    0.364742  -0.020413   0.004446   0.000081  -0.043073   0.558535
     7  H   -0.057729   0.364295  -0.043436   0.006462   0.006020  -0.008382
     8  H    0.006462  -0.043436   0.364295  -0.057730   0.000017  -0.000167
     9  H    0.005191  -0.012452  -0.030980   0.364832   0.003281  -0.000102
    10  H    0.000081   0.004446  -0.020414   0.364743  -0.000102   0.000001
               7          8          9         10
     1  C   -0.057729   0.006462   0.005191   0.000081
     2  C    0.364295  -0.043436  -0.012452   0.004446
     3  C   -0.043436   0.364295  -0.030980  -0.020414
     4  C    0.006462  -0.057730   0.364832   0.364743
     5  H    0.006020   0.000017   0.003281  -0.000102
     6  H   -0.008382  -0.000167  -0.000102   0.000001
     7  H    0.612888  -0.006887   0.000017  -0.000167
     8  H   -0.006887   0.612886   0.006020  -0.008381
     9  H    0.000017   0.006020   0.566513  -0.043072
    10  H   -0.000167  -0.008381  -0.043072   0.558531
 Mulliken charges:
               1
     1  C   -0.334452
     2  C   -0.077552
     3  C   -0.077548
     4  C   -0.334455
     5  H    0.140750
     6  H    0.144332
     7  H    0.126920
     8  H    0.126921
     9  H    0.140752
    10  H    0.144333
 Sum of Mulliken charges =  -0.00000
 Mulliken charges with hydrogens summed into heavy atoms:
               1
     1  C   -0.049370
     2  C    0.049368
     3  C    0.049373
     4  C   -0.049370
 Electronic spatial extent (au):  <R**2>=            308.6434
 Charge=             -0.0000 electrons
 Dipole moment (field-independent basis, Debye):
    X=             -0.0677    Y=              0.0518    Z=             -0.0000  Tot=              0.0853
 Quadrupole moment (field-independent basis, Debye-Ang):
   XX=            -22.5623   YY=            -22.6337   ZZ=            -27.9022
   XY=             -0.1319   XZ=              0.0000   YZ=             -0.0000
 Traceless Quadrupole moment (field-independent basis, Debye-Ang):
   XX=              1.8038   YY=              1.7324   ZZ=             -3.5362
   XY=             -0.1319   XZ=              0.0000   YZ=             -0.0000
 Octapole moment (field-independent basis, Debye-Ang**2):
  XXX=             -0.2486  YYY=              0.1986  ZZZ=             -0.0000  XYY=             -0.0764
  XXY=              0.0501  XXZ=             -0.0000  XZZ=             -0.1672  YZZ=              0.1279
  YYZ=             -0.0000  XYZ=             -0.0000
 Hexadecapole moment (field-independent basis, Debye-Ang**3):
 XXXX=           -163.5442 YYYY=           -207.6562 ZZZZ=            -28.9118 XXXY=            -42.3663
 XXXZ=             -0.0000 YYYX=            -39.1822 YYYZ=             -0.0000 ZZZX=             -0.0000
 ZZZY=             -0.0000 XXYY=            -58.2302 XXZZ=            -36.3478 YYZZ=            -45.7784
 XXYZ=             -0.0000 YYXZ=             -0.0000 ZZXY=            -17.4343
 N-N= 1.044483319202D+02 E-N=-5.693466040575D+02  KE= 1.543940372964D+02
 Symmetry A'   KE= 1.501630709263D+02
 Symmetry A"   KE= 4.230966370119D+00
 Running external command "gaunbo6 R"
         input file       "/tmp/butadiene-sgp-16516.tmp/Gau-14239.EIn"
         output file      "/tmp/butadiene-sgp-16516.tmp/Gau-14239.EOu"
         message file     "/tmp/butadiene-sgp-16516.tmp/Gau-14239.EMs"
         fchk file        "/tmp/butadiene-sgp-16516.tmp/Gau-14239.EFC"
         mat. el file     "/tmp/butadiene-sgp-16516.tmp/Gau-14239.EUF"

 Writing WrtUnf unformatted file "/tmp/butadiene-sgp-16516.tmp/Gau-14239.EUF"
 Gaussian matrix elements                                         Version   2 NLab=11 Len12L=8 Len4L=8
 Write SHELL TO ATOM MAP                   from file     0 offset           0 length                  28 to matrix element file.
 Write SHELL TYPES                         from file     0 offset           0 length                  28 to matrix element file.
 Write NUMBER OF PRIMITIVES PER SHELL      from file     0 offset           0 length                  28 to matrix element file.
 Write PRIMITIVE EXPONENTS                 from file     0 offset           0 length                  68 to matrix element file.
 Write CONTRACTION COEFFICIENTS            from file     0 offset           0 length                  68 to matrix element file.
 Write P(S=P) CONTRACTION COEFFICIENTS     from file     0 offset           0 length                  68 to matrix element file.
 Write COORDINATES OF EACH SHELL           from file     0 offset           0 length                  84 to matrix element file.
 Write BONDS PER ATOM                      from file     0 offset           0 length                  10 to matrix element file.
 Write BONDED ATOMS                        from file     0 offset           0 length                  18 to matrix element file.
 Write BOND TYPES                          from file     0 offset           0 length                  18 to matrix element file.
 Write GAUSSIAN SCALARS                    from file   501 offset           0 to matrix element file.
 Write INTEGER ISO                         from file     0 offset           0 length                  10 to matrix element file.
 Write INTEGER SPIN                        from file     0 offset           0 length                  10 to matrix element file.
 Write REAL ZEFFECTIVE                     from file     0 offset           0 length                  10 to matrix element file.
 Write REAL GFACTOR                        from file     0 offset           0 length                  10 to matrix element file.
 Write REAL ZNUCLEAR                       from file     0 offset           0 length                  10 to matrix element file.
 Write MULLIKEN CHARGES                    from file     0 offset           0 length                  10 to matrix element file.
 Write NUCLEAR GRADIENT                    from file 10584 offset           0 length                  30 to matrix element file.
 Array NUCLEAR FORCE CONSTANTS              on  file 10585 does not exist.
 Write ELECTRIC DIPOLE MOMENT              from file     0 offset           0 length                   3 to matrix element file.
 Write NON-ADIABATIC COUPLING              from file 10810 offset           0 length                  30 to matrix element file.
 Write OVERLAP                             from file 10514 offset           0 length                2628 to matrix element file.
 Write CORE HAMILTONIAN ALPHA              from file 10515 offset           0 length                2628 to matrix element file.
 Write CORE HAMILTONIAN BETA               from file 10515 offset        2628 length                2628 to matrix element file.
 Write KINETIC ENERGY                      from file 10516 offset           0 length                2628 to matrix element file.
 Write ORTHOGONAL BASIS                    from file 10685 offset           0 length                5184 to matrix element file.
 Write DIPOLE INTEGRALS                    from file 10518 offset           0 length                7884 to matrix element file.
 Array DIP VEL INTEGRALS                    on  file 10572 does not exist.
 Array R X DEL INTEGRALS                    on  file 10572 does not exist.
 Write ALPHA ORBITAL ENERGIES              from file     0 offset           0 length                  72 to matrix element file.
 Write ALPHA MO COEFFICIENTS               from file 10524 offset           0 length                5184 to matrix element file.
 Write ALPHA DENSITY MATRIX                from file     0 offset           0 length                2628 to matrix element file.
 Write ALPHA SCF DENSITY MATRIX            from file 10528 offset           0 length                2628 to matrix element file.
 Write ALPHA FOCK MATRIX                   from file 10536 offset           0 length                2628 to matrix element file.
 Write ALPHA SCF DENSITY                   from file     0 offset           0 length                2628 to matrix element file.
 No 2e integrals to process.
 Perform NBO analysis...

 *********************************** NBO 7.0 ***********************************
             N A T U R A L   A T O M I C   O R B I T A L   A N D
          N A T U R A L   B O N D   O R B I T A L   A N A L Y S I S
 ***************************** Yang Wang (I101673) *****************************
  (c) Copyright 1996-2019 Board of Regents of the University of Wisconsin System
      on behalf of the Theoretical Chemistry Institute.  All rights reserved.

          Cite this program [NBO 7.0.4 (28-Mar-2019)] as:

          NBO 7.0.  E. D. Glendening, J. K. Badenhoop, A. E. Reed,
          J. E. Carpenter, J. A. Bohmann, C. M. Morales, P. Karafiloglou,
          C. R. Landis, and F. Weinhold, Theoretical Chemistry Institute,
          University of Wisconsin, Madison, WI (2018)

       /NOBOND / : No two-center NBO search
       /MCB    / : Search for 1-center NBOs
       /AONAO  / : Write the AO to NAO transformation to lfn33

 Filename set to /tmp/butadiene-sgp-16516.tmp/Gau-14239

 Job title:  1,3-butadiene single-point calc.


 NATURAL POPULATIONS:  Natural atomic orbital occupancies

  NAO Atom No lang   Type(AO)    Occupancy      Energy
 -------------------------------------------------------
   1    C  1  s      Cor( 1s)     2.00000     -10.18281
   2    C  1  s      Val( 2s)     1.06100      -0.13730
   3    C  1  s      Ryd( 3s)     0.00064       1.21947
   4    C  1  s      Ryd( 4s)     0.00002       3.86286
   5    C  1  px     Val( 2p)     1.12576      -0.00317
   6    C  1  px     Ryd( 3p)     0.00239       0.55152
   7    C  1  py     Val( 2p)     1.20823      -0.04251
   8    C  1  py     Ryd( 3p)     0.00317       0.95786
   9    C  1  pz     Val( 2p)     0.99477      -0.10692
  10    C  1  pz     Ryd( 3p)     0.00131       0.58439
  11    C  1  dxy    Ryd( 3d)     0.00128       2.27290
  12    C  1  dxz    Ryd( 3d)     0.00066       1.91820
  13    C  1  dyz    Ryd( 3d)     0.00001       1.68782
  14    C  1  dx2y2  Ryd( 3d)     0.00097       2.28023
  15    C  1  dz2    Ryd( 3d)     0.00096       2.11124

  16    C  2  s      Cor( 1s)     2.00000     -10.19181
  17    C  2  s      Val( 2s)     0.98323      -0.10473
  18    C  2  s      Ryd( 3s)     0.00111       1.07955
  19    C  2  s      Ryd( 4s)     0.00004       4.12125
  20    C  2  px     Val( 2p)     1.11474      -0.00238
  21    C  2  px     Ryd( 3p)     0.00478       0.79537
  22    C  2  py     Val( 2p)     1.14432      -0.03040
  23    C  2  py     Ryd( 3p)     0.00482       0.98695
  24    C  2  pz     Val( 2p)     1.00148      -0.09805
  25    C  2  pz     Ryd( 3p)     0.00085       0.62417
  26    C  2  dxy    Ryd( 3d)     0.00106       2.35117
  27    C  2  dxz    Ryd( 3d)     0.00070       1.94549
  28    C  2  dyz    Ryd( 3d)     0.00021       1.79428
  29    C  2  dx2y2  Ryd( 3d)     0.00086       2.37673
  30    C  2  dz2    Ryd( 3d)     0.00075       2.19680

  31    C  3  s      Cor( 1s)     2.00000     -10.19181
  32    C  3  s      Val( 2s)     0.98323      -0.10473
  33    C  3  s      Ryd( 3s)     0.00111       1.07956
  34    C  3  s      Ryd( 4s)     0.00004       4.12124
  35    C  3  px     Val( 2p)     1.17347      -0.03892
  36    C  3  px     Ryd( 3p)     0.00532       1.04780
  37    C  3  py     Val( 2p)     1.08558       0.00615
  38    C  3  py     Ryd( 3p)     0.00429       0.73450
  39    C  3  pz     Val( 2p)     1.00148      -0.09805
  40    C  3  pz     Ryd( 3p)     0.00085       0.62417
  41    C  3  dxy    Ryd( 3d)     0.00083       2.33604
  42    C  3  dxz    Ryd( 3d)     0.00018       1.77639
  43    C  3  dyz    Ryd( 3d)     0.00073       1.96338
  44    C  3  dx2y2  Ryd( 3d)     0.00109       2.39186
  45    C  3  dz2    Ryd( 3d)     0.00075       2.19681

  46    C  4  s      Cor( 1s)     2.00000     -10.18281
  47    C  4  s      Val( 2s)     1.06100      -0.13730
  48    C  4  s      Ryd( 3s)     0.00064       1.21948
  49    C  4  s      Ryd( 4s)     0.00002       3.86285
  50    C  4  px     Val( 2p)     1.20163      -0.03901
  51    C  4  px     Ryd( 3p)     0.00312       0.92582
  52    C  4  py     Val( 2p)     1.13237      -0.00667
  53    C  4  py     Ryd( 3p)     0.00243       0.58357
  54    C  4  pz     Val( 2p)     0.99477      -0.10692
  55    C  4  pz     Ryd( 3p)     0.00131       0.58439
  56    C  4  dxy    Ryd( 3d)     0.00118       2.28156
  57    C  4  dxz    Ryd( 3d)     0.00006       1.70483
  58    C  4  dyz    Ryd( 3d)     0.00061       1.90120
  59    C  4  dx2y2  Ryd( 3d)     0.00106       2.27156
  60    C  4  dz2    Ryd( 3d)     0.00096       2.11124

  61    H  5  s      Val( 1s)     0.78944       0.09775
  62    H  5  s      Ryd( 2s)     0.00076       0.65896

  63    H  6  s      Val( 1s)     0.77878       0.10237
  64    H  6  s      Ryd( 2s)     0.00059       0.61711

  65    H  7  s      Val( 1s)     0.76920       0.10472
  66    H  7  s      Ryd( 2s)     0.00110       0.60393

  67    H  8  s      Val( 1s)     0.76920       0.10472
  68    H  8  s      Ryd( 2s)     0.00110       0.60392

  69    H  9  s      Val( 1s)     0.78944       0.09775
  70    H  9  s      Ryd( 2s)     0.00076       0.65896

  71    H 10  s      Val( 1s)     0.77878       0.10237
  72    H 10  s      Ryd( 2s)     0.00059       0.61711


 Summary of Natural Population Analysis:

                                     Natural Population
             Natural    ---------------------------------------------
  Atom No    Charge        Core      Valence    Rydberg      Total
 --------------------------------------------------------------------
    C  1   -0.40116      2.00000     4.38977    0.01140     6.40116
    C  2   -0.25896      2.00000     4.24377    0.01520     6.25896
    C  3   -0.25896      2.00000     4.24377    0.01520     6.25896
    C  4   -0.40116      2.00000     4.38977    0.01140     6.40116
    H  5    0.20980      0.00000     0.78944    0.00076     0.79020
    H  6    0.22063      0.00000     0.77878    0.00059     0.77937
    H  7    0.22970      0.00000     0.76920    0.00110     0.77030
    H  8    0.22970      0.00000     0.76920    0.00110     0.77030
    H  9    0.20980      0.00000     0.78944    0.00076     0.79020
    H 10    0.22063      0.00000     0.77878    0.00059     0.77937
 ====================================================================
 * Total *  0.00000      7.99999    21.94191    0.05811    30.00000

                                 Natural Population
 ---------------------------------------------------------
   Core                       7.99999 ( 99.9998% of    8)
   Valence                   21.94191 ( 99.7359% of   22)
   Natural Minimal Basis     29.94189 ( 99.8063% of   30)
   Natural Rydberg Basis      0.05811 (  0.1937% of   30)
 ---------------------------------------------------------

    Atom No         Natural Electron Configuration
 ----------------------------------------------------------------------------
      C  1      [core]2s( 1.06)2p( 3.33)3p( 0.01)
      C  2      [core]2s( 0.98)2p( 3.26)3p( 0.01)
      C  3      [core]2s( 0.98)2p( 3.26)3p( 0.01)
      C  4      [core]2s( 1.06)2p( 3.33)3p( 0.01)
      H  5            1s( 0.79)
      H  6            1s( 0.78)
      H  7            1s( 0.77)
      H  8            1s( 0.77)
      H  9            1s( 0.79)
      H 10            1s( 0.78)


 NATURAL BOND ORBITAL ANALYSIS:

                            Occupancies       Lewis Structure    Low   High
         Max    Occ     -------------------  -----------------   occ   occ
  Cycle  Ctr   Thresh    Lewis   non-Lewis     CR  BD  nC  LP    (L)   (NL)
 ============================================================================
    1     1     1.00    20.48317   9.51683      4   0   0  11     1     11
 ----------------------------------------------------------------------------

 Structure accepted: Search for bonds prevented by NOBOND keyword

 -------------------------------------------------------
   Core                      7.99999 (100.000% of   8)
   Valence Lewis            12.48318 ( 56.742% of  22)
  ==================      =============================
   Total Lewis              20.48317 ( 68.277% of  30)
  -----------------------------------------------------
   Valence non-Lewis         9.48445 ( 31.615% of  30)
   Rydberg non-Lewis         0.03237 (  0.108% of  30)
  ==================      =============================
   Total non-Lewis           9.51683 ( 31.723% of  30)
 -------------------------------------------------------


     (Occupancy)   Bond orbital / Coefficients / Hybrids
 ------------------ Lewis ------------------------------------------------------
   1. (2.00000) CR ( 1) C  1            s(100.00%)
                                         1.0000  0.0000  0.0000  0.0000  0.0000
                                         0.0000  0.0000  0.0000  0.0000  0.0000
                                         0.0000  0.0000  0.0000  0.0000  0.0000
   2. (2.00000) CR ( 1) C  2            s(100.00%)
                                         1.0000  0.0000  0.0000  0.0000  0.0000
                                         0.0000  0.0000  0.0000  0.0000  0.0000
                                         0.0000  0.0000  0.0000  0.0000  0.0000
   3. (2.00000) CR ( 1) C  3            s(100.00%)
                                         1.0000  0.0000  0.0000  0.0000  0.0000
                                         0.0000  0.0000  0.0000  0.0000  0.0000
                                         0.0000  0.0000  0.0000  0.0000  0.0000
   4. (2.00000) CR ( 1) C  4            s(100.00%)
                                         1.0000  0.0000  0.0000  0.0000  0.0000
                                         0.0000  0.0000  0.0000  0.0000  0.0000
                                         0.0000  0.0000  0.0000  0.0000  0.0000
   5. (1.22680) LP ( 1) C  1            s( 36.11%)p 1.77( 63.80%)d 0.00(  0.09%)
                                         0.0000  0.6007  0.0149 -0.0004  0.7786
                                         0.0282  0.1759 -0.0033  0.0000  0.0000
                                         0.0044  0.0000  0.0000 -0.0220 -0.0197
   6. (1.20882) LP ( 2) C  1            s(  1.08%)p91.40( 98.83%)d 0.08(  0.08%)
                                         0.0000  0.1039  0.0038  0.0005  0.1418
                                         0.0086 -0.9839  0.0087  0.0000  0.0000
                                        -0.0287  0.0000  0.0000 -0.0031 -0.0034
   7. (0.99647) LP ( 3) C  1            s(  0.00%)p 1.00( 99.94%)d 0.00(  0.06%)
                                         0.0000  0.0000  0.0000  0.0000  0.0000
                                         0.0000  0.0000  0.0000  0.9991 -0.0326
                                         0.0000 -0.0254  0.0010  0.0000  0.0000
   8. (1.23495) LP ( 1) C  2            s( 13.84%)p 6.22( 86.08%)d 0.01(  0.08%)
                                         0.0000  0.3713  0.0235  0.0004 -0.5418
                                         0.0027  0.7531 -0.0115  0.0000  0.0000
                                        -0.0183  0.0000  0.0000 -0.0162 -0.0133
   9. (1.07036) LP ( 2) C  2            s(  1.42%)p69.41( 98.53%)d 0.04(  0.05%)
                                         0.0000  0.1186 -0.0108  0.0018  0.8318
                                         0.0370  0.5403  0.0083  0.0000  0.0000
                                        -0.0155  0.0000  0.0000  0.0165 -0.0025
  10. (1.00243) LP ( 3) C  2            s(  0.00%)p 1.00( 99.96%)d 0.00(  0.04%)
                                         0.0000  0.0000  0.0000  0.0000  0.0000
                                         0.0000  0.0000  0.0000  0.9995 -0.0227
                                         0.0000  0.0201 -0.0054  0.0000  0.0000
  11. (1.23495) LP ( 1) C  3            s( 13.84%)p 6.22( 86.08%)d 0.01(  0.08%)
                                         0.0000  0.3713  0.0235  0.0004 -0.8684
                                         0.0118  0.3264  0.0004  0.0000  0.0000
                                        -0.0076  0.0000  0.0000  0.0232 -0.0133
  12. (1.07035) LP ( 2) C  3            s(  1.42%)p69.40( 98.53%)d 0.04(  0.05%)
                                         0.0000  0.1187 -0.0108  0.0018 -0.3043
                                         0.0017 -0.9440 -0.0379  0.0000  0.0000
                                        -0.0217  0.0000  0.0000 -0.0065 -0.0025
  13. (1.00243) LP ( 3) C  3            s(  0.00%)p 1.00( 99.96%)d 0.00(  0.04%)
                                         0.0000  0.0000  0.0000  0.0000  0.0000
                                         0.0000  0.0000  0.0000  0.9995 -0.0227
                                         0.0000  0.0105 -0.0180  0.0000  0.0000
  14. (1.22680) LP ( 1) C  4            s( 36.11%)p 1.77( 63.81%)d 0.00(  0.09%)
                                         0.0000  0.6007  0.0149 -0.0004  0.0334
                                         0.0105 -0.7976 -0.0264  0.0000  0.0000
                                         0.0149  0.0000  0.0000  0.0168 -0.0197
  15. (1.20882) LP ( 2) C  4            s(  1.08%)p91.32( 98.83%)d 0.08(  0.08%)
                                         0.0000  0.1040  0.0038  0.0005  0.9868
                                        -0.0062  0.1200 -0.0106  0.0000  0.0000
                                        -0.0232  0.0000  0.0000  0.0172 -0.0035
 ---------------- non-Lewis ----------------------------------------------------
  16. (0.96465) LV ( 1) C  1            s( 62.77%)p 0.59( 37.15%)d 0.00(  0.08%)
                                         0.0000  0.7921 -0.0149  0.0003 -0.6089
                                        -0.0256 -0.0043  0.0067  0.0000  0.0000
                                         0.0006  0.0000  0.0000  0.0187 -0.0221
  17. (0.94192) LV ( 1) C  2            s( 84.72%)p 0.18( 15.21%)d 0.00(  0.07%)
                                         0.0000  0.9204 -0.0109 -0.0005  0.1107
                                         0.0086 -0.3737  0.0099  0.0000  0.0000
                                         0.0084  0.0000  0.0000  0.0073 -0.0235
  18. (0.94192) LV ( 1) C  3            s( 84.72%)p 0.18( 15.21%)d 0.00(  0.07%)
                                         0.0000  0.9204 -0.0109 -0.0005  0.3896
                                        -0.0073 -0.0093 -0.0109  0.0000  0.0000
                                         0.0036  0.0000  0.0000 -0.0105 -0.0235
  19. (0.99647) LV ( 1) C  4            s(  0.00%)p 1.00( 99.94%)d 0.00(  0.06%)
                                         0.0000  0.0000  0.0000  0.0000  0.0000
                                         0.0000  0.0000  0.0000  0.9991 -0.0326
                                         0.0000 -0.0076  0.0242  0.0000  0.0000
  20. (0.96465) LV ( 2) C  4            s( 62.77%)p 0.59( 37.15%)d 0.00(  0.08%)
                                         0.0000  0.7921 -0.0149  0.0003 -0.1549
                                        -0.0131  0.5889  0.0230  0.0000  0.0000
                                        -0.0089  0.0000  0.0000 -0.0165 -0.0221
  21. (0.78944) LV ( 1) H  5            s(100.00%)
                                         1.0000  0.0000
  22. (0.77878) LV ( 1) H  6            s(100.00%)
                                         1.0000  0.0000
  23. (0.76920) LV ( 1) H  7            s(100.00%)
                                         1.0000  0.0000
  24. (0.76920) LV ( 1) H  8            s(100.00%)
                                         1.0000  0.0000
  25. (0.78944) LV ( 1) H  9            s(100.00%)
                                         1.0000  0.0000
  26. (0.77878) LV ( 1) H 10            s(100.00%)
                                         1.0000  0.0000
  27. (0.00328) RY ( 1) C  1            s(  0.34%)p99.99( 92.54%)d21.01(  7.12%)
                                         0.0000 -0.0036  0.0560  0.0154  0.0003
                                         0.0837  0.0169  0.9582  0.0000  0.0000
                                        -0.2667  0.0000  0.0000 -0.0062  0.0012
  28. (0.00081) RY ( 2) C  1            s( 15.39%)p 5.43( 83.65%)d 0.06(  0.96%)
                                         0.0000  0.0045  0.3923  0.0019 -0.0467
                                         0.9062  0.0036 -0.1142  0.0000  0.0000
                                        -0.0412  0.0000  0.0000 -0.0855  0.0243
  29. (0.00028) RY ( 3) C  1            s(  0.00%)p 1.00( 89.78%)d 0.11( 10.22%)
                                         0.0000  0.0000  0.0000  0.0000  0.0000
                                         0.0000  0.0000  0.0000  0.0240  0.9472
                                         0.0000 -0.2766 -0.1603  0.0000  0.0000
  30. (0.00005) RY ( 4) C  1            s( 35.54%)p 0.06(  2.18%)d 1.75( 62.28%)
  31. (0.00000) RY ( 5) C  1            s( 48.46%)p 0.27( 13.23%)d 0.79( 38.31%)
  32. (0.00000) RY ( 6) C  1            s( 67.80%)p 0.10(  6.75%)d 0.38( 25.45%)
  33. (0.00000) RY ( 7) C  1            s( 28.25%)p 0.06(  1.63%)d 2.48( 70.12%)
  34. (0.00000) RY ( 8) C  1            s(  0.00%)p 1.00(  7.50%)d12.33( 92.50%)
  35. (0.00000) RY ( 9) C  1            s(  0.00%)p 1.00(  2.78%)d34.95( 97.22%)
  36. (0.00000) RY (10) C  1            s(  4.27%)p 0.05(  0.23%)d22.36( 95.50%)
  37. (0.00565) RY ( 1) C  2            s(  0.09%)p99.99( 94.75%)d58.25(  5.16%)
                                         0.0000 -0.0019  0.0286 -0.0079  0.0001
                                         0.4987 -0.0220 -0.8357  0.0000  0.0000
                                        -0.1876  0.0000  0.0000 -0.1272 -0.0145
  38. (0.00255) RY ( 2) C  2            s(  4.27%)p21.84( 93.16%)d 0.60(  2.57%)
                                         0.0000  0.0147  0.2057  0.0111  0.0366
                                        -0.8461  0.0050 -0.4630  0.0000  0.0000
                                        -0.1599  0.0000  0.0000  0.0039  0.0122
  39. (0.00081) RY ( 3) C  2            s(  0.00%)p 1.00( 41.34%)d 1.42( 58.66%)
                                         0.0000  0.0000  0.0000  0.0000  0.0000
                                         0.0000  0.0000  0.0000  0.0242  0.6425
                                         0.0000 -0.6048 -0.4700  0.0000  0.0000
  40. (0.00018) RY ( 4) C  2            s( 17.69%)p 0.00(  0.08%)d 4.65( 82.23%)
                                         0.0000  0.0037  0.4199  0.0240  0.0278
                                        -0.0027  0.0026  0.0025  0.0000  0.0000
                                         0.5383  0.0000  0.0000 -0.7297  0.0075
  41. (0.00006) RY ( 5) C  2            s( 77.65%)p 0.07(  5.08%)d 0.22( 17.27%)
  42. (0.00004) RY ( 6) C  2            s( 96.82%)p 0.00(  0.33%)d 0.03(  2.85%)
  43. (0.00000) RY ( 7) C  2            s(  1.74%)p 3.88(  6.77%)d52.47( 91.49%)
  44. (0.00000) RY ( 8) C  2            s(  0.00%)p 1.00( 46.98%)d 1.13( 53.02%)
  45. (0.00000) RY ( 9) C  2            s(  0.00%)p 1.00( 11.73%)d 7.53( 88.27%)
  46. (0.00000) RY (10) C  2            s(  1.76%)p 0.01(  0.01%)d55.85( 98.23%)
  47. (0.00565) RY ( 1) C  3            s(  0.09%)p99.99( 94.75%)d58.24(  5.16%)
                                         0.0000 -0.0019  0.0286 -0.0079  0.0212
                                         0.9369  0.0057 -0.2632  0.0000  0.0000
                                        -0.0980  0.0000  0.0000  0.2044 -0.0145
  48. (0.00255) RY ( 2) C  3            s(  4.27%)p21.84( 93.16%)d 0.60(  2.57%)
                                         0.0000  0.0147  0.2057  0.0111  0.0047
                                         0.2260 -0.0366  0.9376  0.0000  0.0000
                                        -0.1401  0.0000  0.0000  0.0772  0.0122
  49. (0.00081) RY ( 3) C  3            s(  0.00%)p 1.00( 41.34%)d 1.42( 58.66%)
                                         0.0000  0.0000  0.0000  0.0000  0.0000
                                         0.0000  0.0000  0.0000  0.0242  0.6425
                                         0.0000  0.2958  0.7065  0.0000  0.0000
  50. (0.00018) RY ( 4) C  3            s( 17.69%)p 0.00(  0.08%)d 4.65( 82.23%)
                                         0.0000  0.0037  0.4199  0.0240  0.0047
                                        -0.0032 -0.0275  0.0019  0.0000  0.0000
                                         0.8327  0.0000  0.0000  0.3589  0.0075
  51. (0.00006) RY ( 5) C  3            s( 77.64%)p 0.07(  5.08%)d 0.22( 17.28%)
  52. (0.00004) RY ( 6) C  3            s( 96.82%)p 0.00(  0.33%)d 0.03(  2.85%)
  53. (0.00000) RY ( 7) C  3            s(  1.74%)p 3.88(  6.77%)d52.44( 91.49%)
  54. (0.00000) RY ( 8) C  3            s(  0.00%)p 1.00( 17.48%)d 4.72( 82.52%)
  55. (0.00000) RY ( 9) C  3            s(  0.00%)p 1.00( 41.23%)d 1.43( 58.77%)
  56. (0.00000) RY (10) C  3            s(  1.76%)p 0.01(  0.01%)d55.84( 98.23%)
  57. (0.00328) RY ( 1) C  4            s(  0.34%)p99.99( 92.54%)d21.00(  7.12%)
                                         0.0000 -0.0036  0.0560  0.0154 -0.0162
                                        -0.9031 -0.0047 -0.3310  0.0000  0.0000
                                        -0.2272  0.0000  0.0000  0.1398  0.0012
  58. (0.00080) RY ( 2) C  4            s( 15.39%)p 5.43( 83.65%)d 0.06(  0.96%)
                                         0.0000  0.0045  0.3923  0.0019 -0.0156
                                         0.3469  0.0441 -0.8450  0.0000  0.0000
                                         0.0076  0.0000  0.0000  0.0946  0.0243
  59. (0.00028) RY ( 3) C  4            s(  0.00%)p 1.00( 89.78%)d 0.11( 10.22%)
                                         0.0000  0.0000  0.0000  0.0000  0.0000
                                         0.0000  0.0000  0.0000  0.0240  0.9472
                                         0.0000  0.0825  0.3088  0.0000  0.0000
  60. (0.00005) RY ( 4) C  4            s( 35.54%)p 0.06(  2.18%)d 1.75( 62.28%)
  61. (0.00000) RY ( 5) C  4            s( 48.46%)p 0.27( 13.23%)d 0.79( 38.31%)
  62. (0.00000) RY ( 6) C  4            s( 28.25%)p 0.06(  1.63%)d 2.48( 70.12%)
  63. (0.00000) RY ( 7) C  4            s( 67.80%)p 0.10(  6.75%)d 0.38( 25.46%)
  64. (0.00000) RY ( 8) C  4            s(  0.00%)p 1.00(  0.62%)d99.99( 99.38%)
  65. (0.00000) RY ( 9) C  4            s(  0.00%)p 1.00(  9.66%)d 9.35( 90.34%)
  66. (0.00000) RY (10) C  4            s(  4.27%)p 0.05(  0.23%)d22.35( 95.50%)
  67. (0.00076) RY ( 1) H  5            s(100.00%)
                                         0.0000  1.0000
  68. (0.00059) RY ( 1) H  6            s(100.00%)
                                         0.0000  1.0000
  69. (0.00110) RY ( 1) H  7            s(100.00%)
                                         0.0000  1.0000
  70. (0.00110) RY ( 1) H  8            s(100.00%)
                                         0.0000  1.0000
  71. (0.00076) RY ( 1) H  9            s(100.00%)
                                         0.0000  1.0000
  72. (0.00059) RY ( 1) H 10            s(100.00%)
                                         0.0000  1.0000


 NHO DIRECTIONALITY AND BOND BENDING (deviation from line of nuclear centers at
                                      the position of maximum hybrid amplitude)

         [Thresholds for printing:  angular deviation  >  1.0 degree]
                                    p- or d-character  > 25.0%
                                    orbital occupancy  >  0.10e

                        Line of Centers        Hybrid 1             Hybrid 2
                        ---------------  -------------------  ------------------
           NBO            Theta   Phi    Theta   Phi    Dev   Theta   Phi    Dev
 ===============================================================================
   5. LP ( 1) C  1          --     --     90.0   12.5   --      --     --    --
   6. LP ( 2) C  1          --     --     90.0  278.8   --      --     --    --
   7. LP ( 3) C  1          --     --      0.9  177.3   --      --     --    --
   8. LP ( 1) C  2          --     --     90.0  126.2   --      --     --    --
   9. LP ( 2) C  2          --     --     90.0   31.9   --      --     --    --
  10. LP ( 3) C  2          --     --      0.7  353.2   --      --     --    --
  11. LP ( 1) C  3          --     --     90.0  158.9   --      --     --    --
  12. LP ( 2) C  3          --     --     90.0  253.2   --      --     --    --
  13. LP ( 3) C  3          --     --      0.7  291.9   --      --     --    --
  14. LP ( 1) C  4          --     --     90.0  272.6   --      --     --    --
  15. LP ( 2) C  4          --     --     90.0    6.3   --      --     --    --


 SECOND ORDER PERTURBATION THEORY ANALYSIS OF FOCK MATRIX IN NBO BASIS

     Threshold for printing:   0.50 kcal/mol
    (Intermolecular threshold: 0.05 kcal/mol)
                                                          E(2) E(NL)-E(L) F(L,NL)
      Donor (L) NBO              Acceptor (NL) NBO      kcal/mol   a.u.    a.u.
 ===============================================================================

 within unit  1
    5. LP ( 1) C  1            16. LV ( 1) C  1           79.62    0.13   0.092
    5. LP ( 1) C  1            28. RY ( 2) C  1            4.88    0.77   0.055
    5. LP ( 1) C  1            30. RY ( 4) C  1            1.88    2.53   0.061
    5. LP ( 1) C  1            31. RY ( 5) C  1            3.42    1.46   0.063
    5. LP ( 1) C  1            33. RY ( 7) C  1            1.37    2.70   0.054
    5. LP ( 1) C  1            36. RY (10) C  1            1.09    2.33   0.045
    6. LP ( 2) C  1            16. LV ( 1) C  1            9.92    0.05   0.020
    6. LP ( 2) C  1            27. RY ( 1) C  1            1.31    1.15   0.035
    6. LP ( 2) C  1            30. RY ( 4) C  1            2.50    2.44   0.070
    6. LP ( 2) C  1            31. RY ( 5) C  1            1.69    1.37   0.043
    6. LP ( 2) C  1            32. RY ( 6) C  1            0.78    3.00   0.043
    7. LP ( 3) C  1            29. RY ( 3) C  1            7.78    0.81   0.071
    7. LP ( 3) C  1            34. RY ( 8) C  1            1.26    1.95   0.044

 from unit  1 to unit  2
    5. LP ( 1) C  1            17. LV ( 1) C  2          203.78    0.07   0.107
    5. LP ( 1) C  1            37. RY ( 1) C  2            0.52    1.30   0.023
    5. LP ( 1) C  1            38. RY ( 2) C  2            3.19    0.90   0.048
    5. LP ( 1) C  1            40. RY ( 4) C  2            1.22    2.26   0.047
    5. LP ( 1) C  1            41. RY ( 5) C  2            0.39    1.27   0.020
    5. LP ( 1) C  1            43. RY ( 7) C  2            0.07    2.42   0.011
    6. LP ( 2) C  1            17. LV ( 1) C  2          116.66    0.01   0.037
    6. LP ( 2) C  1            40. RY ( 4) C  2            0.22    2.18   0.019
    6. LP ( 2) C  1            41. RY ( 5) C  2            0.89    1.19   0.029
    6. LP ( 2) C  1            43. RY ( 7) C  2            1.68    2.34   0.056
    7. LP ( 3) C  1            39. RY ( 3) C  2            0.08    1.50   0.010
    7. LP ( 3) C  1            44. RY ( 8) C  2            5.64    1.42   0.080

 from unit  1 to unit  3
    5. LP ( 1) C  1            18. LV ( 1) C  3            1.26    0.07   0.008
    6. LP ( 2) C  1            18. LV ( 1) C  3          113.89    0.01   0.036
    6. LP ( 2) C  1            47. RY ( 1) C  3            0.06    1.21   0.008
    6. LP ( 2) C  1            50. RY ( 4) C  3            0.24    2.18   0.020
    6. LP ( 2) C  1            56. RY (10) C  3            0.08    2.28   0.012

 from unit  1 to unit  4
    5. LP ( 1) C  1            20. LV ( 2) C  4            0.07    0.13   0.003
    6. LP ( 2) C  1            20. LV ( 2) C  4            0.12    0.05   0.002

 from unit  1 to unit  5
    5. LP ( 1) C  1            21. LV ( 1) H  5          425.70    0.22   0.275
    5. LP ( 1) C  1            67. RY ( 1) H  5           30.01    0.78   0.137
    6. LP ( 2) C  1            21. LV ( 1) H  5         1232.30    0.14   0.370
    6. LP ( 2) C  1            67. RY ( 1) H  5           57.71    0.70   0.179

 from unit  1 to unit  6
    5. LP ( 1) C  1            22. LV ( 1) H  6          811.62    0.23   0.384
    5. LP ( 1) C  1            68. RY ( 1) H  6           60.50    0.74   0.189
    6. LP ( 2) C  1            22. LV ( 1) H  6          572.99    0.14   0.256
    6. LP ( 2) C  1            68. RY ( 1) H  6           28.31    0.66   0.122

 from unit  1 to unit  7
    5. LP ( 1) C  1            23. LV ( 1) H  7            4.61    0.23   0.029
    6. LP ( 2) C  1            23. LV ( 1) H  7            8.48    0.15   0.031

 from unit  1 to unit  8
    5. LP ( 1) C  1            24. LV ( 1) H  8            0.22    0.23   0.006
    6. LP ( 2) C  1            70. RY ( 1) H  8            0.08    0.65   0.006

 from unit  1 to unit  9
    5. LP ( 1) C  1            25. LV ( 1) H  9            1.28    0.22   0.015
    5. LP ( 1) C  1            71. RY ( 1) H  9            0.14    0.78   0.009
    6. LP ( 2) C  1            25. LV ( 1) H  9            0.06    0.14   0.003
    6. LP ( 2) C  1            71. RY ( 1) H  9            0.13    0.70   0.008

 from unit  1 to unit 10
    5. LP ( 1) C  1            26. LV ( 1) H 10            0.18    0.23   0.006

 from unit  2 to unit  1
    8. LP ( 1) C  2            16. LV ( 1) C  1          153.99    0.09   0.107
    8. LP ( 1) C  2            27. RY ( 1) C  1            0.25    1.20   0.016
    8. LP ( 1) C  2            28. RY ( 2) C  1            3.01    0.73   0.042
    8. LP ( 1) C  2            30. RY ( 4) C  1            0.73    2.49   0.038
    8. LP ( 1) C  2            31. RY ( 5) C  1            1.15    1.42   0.036
    8. LP ( 1) C  2            33. RY ( 7) C  1            0.10    2.66   0.015
    9. LP ( 2) C  2            16. LV ( 1) C  1         *******    0.01   0.449
    9. LP ( 2) C  2            27. RY ( 1) C  1            0.08    1.09   0.008
    9. LP ( 2) C  2            28. RY ( 2) C  1           33.43    0.62   0.129
    9. LP ( 2) C  2            32. RY ( 6) C  1            0.59    2.94   0.037
    9. LP ( 2) C  2            33. RY ( 7) C  1            4.70    2.55   0.098
    9. LP ( 2) C  2            36. RY (10) C  1            0.40    2.19   0.027
   10. LP ( 3) C  2            29. RY ( 3) C  1            8.58    0.80   0.074
   10. LP ( 3) C  2            34. RY ( 8) C  1            1.35    1.94   0.046
   10. LP ( 3) C  2            35. RY ( 9) C  1            0.06    1.76   0.009

 within unit  2
    8. LP ( 1) C  2            17. LV ( 1) C  2          184.28    0.03   0.066
    8. LP ( 1) C  2            37. RY ( 1) C  2            1.87    1.26   0.043
    8. LP ( 1) C  2            38. RY ( 2) C  2            0.61    0.86   0.021
    8. LP ( 1) C  2            43. RY ( 7) C  2            2.66    2.38   0.071
    8. LP ( 1) C  2            46. RY (10) C  2            0.51    2.32   0.031
    9. LP ( 2) C  2            17. LV ( 1) C  2            2.51    0.08   0.012
    9. LP ( 2) C  2            38. RY ( 2) C  2           13.95    0.75   0.092
    9. LP ( 2) C  2            40. RY ( 4) C  2            6.24    2.11   0.103
    9. LP ( 2) C  2            41. RY ( 5) C  2            2.91    1.13   0.051
   10. LP ( 3) C  2            44. RY ( 8) C  2            4.75    1.41   0.073

 from unit  2 to unit  3
    8. LP ( 1) C  2            18. LV ( 1) C  3           42.88    0.03   0.032
    8. LP ( 1) C  2            48. RY ( 2) C  3            0.66    0.86   0.021
    8. LP ( 1) C  2            50. RY ( 4) C  3            0.44    2.22   0.028
    8. LP ( 1) C  2            51. RY ( 5) C  3            0.24    1.23   0.015
    8. LP ( 1) C  2            53. RY ( 7) C  3            0.47    2.38   0.030
    9. LP ( 2) C  2            18. LV ( 1) C  3         1072.13    0.08   0.257
    9. LP ( 2) C  2            48. RY ( 2) C  3            0.99    0.75   0.024
    9. LP ( 2) C  2            50. RY ( 4) C  3            0.08    2.11   0.011
    9. LP ( 2) C  2            51. RY ( 5) C  3            7.81    1.13   0.084
    9. LP ( 2) C  2            53. RY ( 7) C  3            2.28    2.27   0.064
   10. LP ( 3) C  2            49. RY ( 3) C  3            2.50    1.49   0.054
   10. LP ( 3) C  2            54. RY ( 8) C  3            0.11    1.71   0.012

 from unit  2 to unit  4
    8. LP ( 1) C  2            20. LV ( 2) C  4           11.88    0.09   0.030
    8. LP ( 1) C  2            60. RY ( 4) C  4            0.08    2.49   0.012
    9. LP ( 2) C  2            20. LV ( 2) C  4          685.96    0.01   0.087
    9. LP ( 2) C  2            57. RY ( 1) C  4            0.25    1.09   0.015
    9. LP ( 2) C  2            61. RY ( 5) C  4            0.10    1.31   0.010
    9. LP ( 2) C  2            62. RY ( 6) C  4            0.11    2.55   0.015
    9. LP ( 2) C  2            63. RY ( 7) C  4            0.06    2.94   0.011

 from unit  2 to unit  5
    8. LP ( 1) C  2            21. LV ( 1) H  5            0.15    0.18   0.005
    9. LP ( 2) C  2            21. LV ( 1) H  5          111.18    0.08   0.082
    9. LP ( 2) C  2            67. RY ( 1) H  5            0.32    0.64   0.013

 from unit  2 to unit  6
    8. LP ( 1) C  2            22. LV ( 1) H  6           13.06    0.19   0.044
    9. LP ( 2) C  2            22. LV ( 1) H  6           33.55    0.08   0.046
    9. LP ( 2) C  2            68. RY ( 1) H  6            0.18    0.60   0.009

 from unit  2 to unit  7
    8. LP ( 1) C  2            23. LV ( 1) H  7         1316.81    0.19   0.447
    8. LP ( 1) C  2            69. RY ( 1) H  7           79.63    0.69   0.209
    9. LP ( 2) C  2            23. LV ( 1) H  7           64.71    0.08   0.065
    9. LP ( 2) C  2            69. RY ( 1) H  7            3.19    0.58   0.038

 from unit  2 to unit  8
    8. LP ( 1) C  2            24. LV ( 1) H  8            3.49    0.19   0.023
    9. LP ( 2) C  2            24. LV ( 1) H  8           28.83    0.08   0.044
    9. LP ( 2) C  2            70. RY ( 1) H  8            0.16    0.58   0.009

 from unit  2 to unit  9
    9. LP ( 2) C  2            25. LV ( 1) H  9           10.22    0.08   0.025

 from unit  2 to unit 10
    8. LP ( 1) C  2            26. LV ( 1) H 10            0.08    0.19   0.004
    9. LP ( 2) C  2            26. LV ( 1) H 10            1.04    0.08   0.008

 from unit  3 to unit  1
   11. LP ( 1) C  3            16. LV ( 1) C  1           11.88    0.09   0.030
   11. LP ( 1) C  3            30. RY ( 4) C  1            0.08    2.49   0.012
   12. LP ( 2) C  3            16. LV ( 1) C  1          686.12    0.01   0.087
   12. LP ( 2) C  3            27. RY ( 1) C  1            0.25    1.09   0.015
   12. LP ( 2) C  3            31. RY ( 5) C  1            0.10    1.31   0.010
   12. LP ( 2) C  3            32. RY ( 6) C  1            0.06    2.94   0.011
   12. LP ( 2) C  3            33. RY ( 7) C  1            0.11    2.55   0.015

 from unit  3 to unit  2
   11. LP ( 1) C  3            17. LV ( 1) C  2           42.89    0.03   0.032
   11. LP ( 1) C  3            38. RY ( 2) C  2            0.66    0.86   0.021
   11. LP ( 1) C  3            40. RY ( 4) C  2            0.44    2.22   0.028
   11. LP ( 1) C  3            41. RY ( 5) C  2            0.24    1.23   0.015
   11. LP ( 1) C  3            43. RY ( 7) C  2            0.47    2.38   0.030
   12. LP ( 2) C  3            17. LV ( 1) C  2         1072.08    0.08   0.257
   12. LP ( 2) C  3            38. RY ( 2) C  2            0.99    0.75   0.024
   12. LP ( 2) C  3            40. RY ( 4) C  2            0.08    2.11   0.011
   12. LP ( 2) C  3            41. RY ( 5) C  2            7.81    1.13   0.084
   12. LP ( 2) C  3            43. RY ( 7) C  2            2.28    2.27   0.064
   13. LP ( 3) C  3            39. RY ( 3) C  2            2.50    1.49   0.054
   13. LP ( 3) C  3            45. RY ( 9) C  2            0.11    1.77   0.012

 within unit  3
   11. LP ( 1) C  3            18. LV ( 1) C  3          184.28    0.03   0.066
   11. LP ( 1) C  3            47. RY ( 1) C  3            1.87    1.26   0.043
   11. LP ( 1) C  3            48. RY ( 2) C  3            0.61    0.86   0.021
   11. LP ( 1) C  3            53. RY ( 7) C  3            2.66    2.38   0.071
   11. LP ( 1) C  3            56. RY (10) C  3            0.51    2.32   0.031
   12. LP ( 2) C  3            18. LV ( 1) C  3            2.51    0.08   0.012
   12. LP ( 2) C  3            48. RY ( 2) C  3           13.95    0.75   0.092
   12. LP ( 2) C  3            50. RY ( 4) C  3            6.24    2.11   0.103
   12. LP ( 2) C  3            51. RY ( 5) C  3            2.91    1.13   0.051
   13. LP ( 3) C  3            55. RY ( 9) C  3            4.68    1.47   0.074

 from unit  3 to unit  4
   11. LP ( 1) C  3            20. LV ( 2) C  4          153.99    0.09   0.107
   11. LP ( 1) C  3            57. RY ( 1) C  4            0.25    1.20   0.016
   11. LP ( 1) C  3            58. RY ( 2) C  4            3.01    0.73   0.042
   11. LP ( 1) C  3            60. RY ( 4) C  4            0.73    2.49   0.038
   11. LP ( 1) C  3            61. RY ( 5) C  4            1.15    1.42   0.036
   11. LP ( 1) C  3            62. RY ( 6) C  4            0.10    2.66   0.015
   12. LP ( 2) C  3            20. LV ( 2) C  4         *******    0.01   0.449
   12. LP ( 2) C  3            57. RY ( 1) C  4            0.08    1.09   0.008
   12. LP ( 2) C  3            58. RY ( 2) C  4           33.43    0.62   0.129
   12. LP ( 2) C  3            62. RY ( 6) C  4            4.70    2.55   0.098
   12. LP ( 2) C  3            63. RY ( 7) C  4            0.59    2.94   0.037
   12. LP ( 2) C  3            66. RY (10) C  4            0.40    2.19   0.027
   13. LP ( 3) C  3            59. RY ( 3) C  4            8.58    0.80   0.074
   13. LP ( 3) C  3            64. RY ( 8) C  4            0.35    1.80   0.022
   13. LP ( 3) C  3            65. RY ( 9) C  4            1.11    1.90   0.041

 from unit  3 to unit  5
   12. LP ( 2) C  3            21. LV ( 1) H  5           10.22    0.08   0.025

 from unit  3 to unit  6
   11. LP ( 1) C  3            22. LV ( 1) H  6            0.08    0.19   0.004
   12. LP ( 2) C  3            22. LV ( 1) H  6            1.04    0.08   0.008

 from unit  3 to unit  7
   11. LP ( 1) C  3            23. LV ( 1) H  7            3.49    0.19   0.023
   12. LP ( 2) C  3            23. LV ( 1) H  7           28.83    0.08   0.044
   12. LP ( 2) C  3            69. RY ( 1) H  7            0.16    0.58   0.009

 from unit  3 to unit  8
   11. LP ( 1) C  3            24. LV ( 1) H  8         1316.81    0.19   0.447
   11. LP ( 1) C  3            70. RY ( 1) H  8           79.63    0.69   0.209
   12. LP ( 2) C  3            24. LV ( 1) H  8           64.70    0.08   0.065
   12. LP ( 2) C  3            70. RY ( 1) H  8            3.19    0.58   0.038

 from unit  3 to unit  9
   11. LP ( 1) C  3            25. LV ( 1) H  9            0.15    0.18   0.005
   12. LP ( 2) C  3            25. LV ( 1) H  9          111.17    0.08   0.082
   12. LP ( 2) C  3            71. RY ( 1) H  9            0.32    0.64   0.013

 from unit  3 to unit 10
   11. LP ( 1) C  3            26. LV ( 1) H 10           13.06    0.19   0.044
   12. LP ( 2) C  3            26. LV ( 1) H 10           33.55    0.08   0.046
   12. LP ( 2) C  3            72. RY ( 1) H 10            0.18    0.60   0.009

 from unit  4 to unit  1
   14. LP ( 1) C  4            16. LV ( 1) C  1            0.07    0.13   0.003
   15. LP ( 2) C  4            16. LV ( 1) C  1            0.12    0.05   0.002

 from unit  4 to unit  2
   14. LP ( 1) C  4            17. LV ( 1) C  2            1.26    0.07   0.008
   15. LP ( 2) C  4            17. LV ( 1) C  2          113.88    0.01   0.036
   15. LP ( 2) C  4            37. RY ( 1) C  2            0.06    1.21   0.008
   15. LP ( 2) C  4            40. RY ( 4) C  2            0.24    2.18   0.020
   15. LP ( 2) C  4            46. RY (10) C  2            0.08    2.28   0.012

 from unit  4 to unit  3
   14. LP ( 1) C  4            18. LV ( 1) C  3          203.78    0.07   0.107
   14. LP ( 1) C  4            47. RY ( 1) C  3            0.52    1.30   0.023
   14. LP ( 1) C  4            48. RY ( 2) C  3            3.19    0.90   0.048
   14. LP ( 1) C  4            50. RY ( 4) C  3            1.22    2.26   0.047
   14. LP ( 1) C  4            51. RY ( 5) C  3            0.39    1.27   0.020
   14. LP ( 1) C  4            53. RY ( 7) C  3            0.07    2.42   0.011
   15. LP ( 2) C  4            18. LV ( 1) C  3          116.64    0.01   0.037
   15. LP ( 2) C  4            50. RY ( 4) C  3            0.22    2.18   0.019
   15. LP ( 2) C  4            51. RY ( 5) C  3            0.89    1.19   0.029
   15. LP ( 2) C  4            53. RY ( 7) C  3            1.68    2.34   0.056

 within unit  4
   14. LP ( 1) C  4            20. LV ( 2) C  4           79.62    0.13   0.092
   14. LP ( 1) C  4            58. RY ( 2) C  4            4.88    0.77   0.055
   14. LP ( 1) C  4            60. RY ( 4) C  4            1.88    2.53   0.061
   14. LP ( 1) C  4            61. RY ( 5) C  4            3.42    1.46   0.063
   14. LP ( 1) C  4            62. RY ( 6) C  4            1.37    2.70   0.054
   14. LP ( 1) C  4            66. RY (10) C  4            1.09    2.33   0.045
   15. LP ( 2) C  4            20. LV ( 2) C  4            9.93    0.05   0.020
   15. LP ( 2) C  4            57. RY ( 1) C  4            1.31    1.15   0.035
   15. LP ( 2) C  4            60. RY ( 4) C  4            2.51    2.44   0.070
   15. LP ( 2) C  4            61. RY ( 5) C  4            1.69    1.37   0.043
   15. LP ( 2) C  4            63. RY ( 7) C  4            0.78    3.00   0.043

 from unit  4 to unit  5
   14. LP ( 1) C  4            21. LV ( 1) H  5            1.28    0.22   0.015
   14. LP ( 1) C  4            67. RY ( 1) H  5            0.14    0.78   0.009
   15. LP ( 2) C  4            21. LV ( 1) H  5            0.06    0.14   0.003
   15. LP ( 2) C  4            67. RY ( 1) H  5            0.13    0.70   0.008

 from unit  4 to unit  6
   14. LP ( 1) C  4            22. LV ( 1) H  6            0.18    0.23   0.006

 from unit  4 to unit  7
   14. LP ( 1) C  4            23. LV ( 1) H  7            0.22    0.23   0.006
   15. LP ( 2) C  4            69. RY ( 1) H  7            0.08    0.65   0.006

 from unit  4 to unit  8
   14. LP ( 1) C  4            24. LV ( 1) H  8            4.61    0.23   0.029
   15. LP ( 2) C  4            24. LV ( 1) H  8            8.48    0.15   0.031

 from unit  4 to unit  9
   14. LP ( 1) C  4            25. LV ( 1) H  9          425.60    0.22   0.275
   14. LP ( 1) C  4            71. RY ( 1) H  9           30.01    0.78   0.137
   15. LP ( 2) C  4            25. LV ( 1) H  9         1232.44    0.14   0.370
   15. LP ( 2) C  4            71. RY ( 1) H  9           57.71    0.70   0.179

 from unit  4 to unit 10
   14. LP ( 1) C  4            26. LV ( 1) H 10          811.71    0.23   0.384
   14. LP ( 1) C  4            72. RY ( 1) H 10           60.51    0.74   0.189
   15. LP ( 2) C  4            26. LV ( 1) H 10          572.86    0.14   0.256
   15. LP ( 2) C  4            72. RY ( 1) H 10           28.30    0.66   0.122

 from unit  5 to unit  1
       None above threshold

 from unit  5 to unit  2
       None above threshold

 from unit  5 to unit  3
       None above threshold

 from unit  5 to unit  4
       None above threshold

 within unit  5
       None above threshold

 from unit  5 to unit  6
       None above threshold

 from unit  5 to unit  7
       None above threshold

 from unit  5 to unit  8
       None above threshold

 from unit  5 to unit  9
       None above threshold

 from unit  5 to unit 10
       None above threshold

 from unit  6 to unit  1
       None above threshold

 from unit  6 to unit  2
       None above threshold

 from unit  6 to unit  3
       None above threshold

 from unit  6 to unit  4
       None above threshold

 from unit  6 to unit  5
       None above threshold

 within unit  6
       None above threshold

 from unit  6 to unit  7
       None above threshold

 from unit  6 to unit  8
       None above threshold

 from unit  6 to unit  9
       None above threshold

 from unit  6 to unit 10
       None above threshold

 from unit  7 to unit  1
       None above threshold

 from unit  7 to unit  2
       None above threshold

 from unit  7 to unit  3
       None above threshold

 from unit  7 to unit  4
       None above threshold

 from unit  7 to unit  5
       None above threshold

 from unit  7 to unit  6
       None above threshold

 within unit  7
       None above threshold

 from unit  7 to unit  8
       None above threshold

 from unit  7 to unit  9
       None above threshold

 from unit  7 to unit 10
       None above threshold

 from unit  8 to unit  1
       None above threshold

 from unit  8 to unit  2
       None above threshold

 from unit  8 to unit  3
       None above threshold

 from unit  8 to unit  4
       None above threshold

 from unit  8 to unit  5
       None above threshold

 from unit  8 to unit  6
       None above threshold

 from unit  8 to unit  7
       None above threshold

 within unit  8
       None above threshold

 from unit  8 to unit  9
       None above threshold

 from unit  8 to unit 10
       None above threshold

 from unit  9 to unit  1
       None above threshold

 from unit  9 to unit  2
       None above threshold

 from unit  9 to unit  3
       None above threshold

 from unit  9 to unit  4
       None above threshold

 from unit  9 to unit  5
       None above threshold

 from unit  9 to unit  6
       None above threshold

 from unit  9 to unit  7
       None above threshold

 from unit  9 to unit  8
       None above threshold

 within unit  9
       None above threshold

 from unit  9 to unit 10
       None above threshold

 from unit 10 to unit  1
       None above threshold

 from unit 10 to unit  2
       None above threshold

 from unit 10 to unit  3
       None above threshold

 from unit 10 to unit  4
       None above threshold

 from unit 10 to unit  5
       None above threshold

 from unit 10 to unit  6
       None above threshold

 from unit 10 to unit  7
       None above threshold

 from unit 10 to unit  8
       None above threshold

 from unit 10 to unit  9
       None above threshold

 within unit 10
       None above threshold


 NATURAL BOND ORBITALS (Summary):

                                                     Principal Delocalizations
           NBO                 Occupancy    Energy   (geminal,vicinal,remote)
 ===============================================================================
 Molecular unit  1  (C)
 ------ Lewis --------------------------------------
    1. CR ( 1) C  1             2.00000   -10.18281
    5. LP ( 1) C  1             1.22680    -0.12577  22(r),21(r),17(r),16(g)
                                                     68(r),67(r),28(g),23(r)
                                                     31(g),38(r),30(g),33(g)
                                                     25(r),18(r),40(r),36(g)
                                                     37(r),41(r),24(r),26(r)
                                                     71(r),20(r),43(r)
    6. LP ( 2) C  1             1.20882    -0.04131  21(r),22(r),17(r),18(r)
                                                     67(r),68(r),16(g),23(r)
                                                     30(g),31(g),43(r),27(g)
                                                     41(r),32(g),50(r),40(r)
                                                     71(r),20(r),56(r),70(r)
                                                     25(r),47(r)
    7. LP ( 3) C  1             0.99647    -0.10958  29(g),44(r),34(g),39(r)
 ------ non-Lewis ----------------------------------
   16. LV ( 1) C  1             0.96465     0.00810
   27. RY ( 1) C  1             0.00328     1.11215
   28. RY ( 2) C  1             0.00081     0.64554
   29. RY ( 3) C  1             0.00028     0.69733
   30. RY ( 4) C  1             0.00005     2.40035
   31. RY ( 5) C  1             0.00000     1.32977
   32. RY ( 6) C  1             0.00000     2.96005
   33. RY ( 7) C  1             0.00000     2.57575
   34. RY ( 8) C  1             0.00000     1.83891
   35. RY ( 9) C  1             0.00000     1.65683
   36. RY (10) C  1             0.00000     2.20846
          -------------------------------
                 Total Lewis    5.43209  ( 84.8610%)
           Valence non-Lewis    0.96465  ( 15.0699%)
           Rydberg non-Lewis    0.00443  (  0.0691%)
          -------------------------------
               Total unit  1    6.40116  (100.0000%)
              Charge unit  1   -0.40116

 Molecular unit  2  (C)
 ------ Lewis --------------------------------------
    2. CR ( 1) C  2             2.00000   -10.19181
    8. LP ( 1) C  2             1.23495    -0.08538  23(r),17(g),16(r),69(r)
                                                     18(r),22(r),20(r),24(r)
                                                     28(r),43(g),37(g),31(r)
                                                     30(r),48(r),38(g),46(g)
                                                     53(r),50(r),27(r),51(r)
                                                     21(r),33(r),26(r),60(r)
    9. LP ( 2) C  2             1.07036     0.02182  16(r),18(r),20(r),21(r)
                                                     23(r),22(r),28(r),24(r)
                                                     38(g),25(r),51(r),40(g)
                                                     33(r),69(r),41(g),17(g)
                                                     53(r),26(r),48(r),32(r)
                                                     36(r),67(r),57(r),68(r)
                                                     70(r),62(r),61(r),50(r)
                                                     27(r),63(r)
   10. LP ( 3) C  2             1.00243    -0.09970  29(r),44(g),49(r),34(r)
                                                     54(r),35(r)
 ------ non-Lewis ----------------------------------
   17. LV ( 1) C  2             0.94192    -0.05573
   37. RY ( 1) C  2             0.00565     1.17032
   38. RY ( 2) C  2             0.00255     0.77534
   39. RY ( 3) C  2             0.00081     1.38823
   40. RY ( 4) C  2             0.00018     2.13572
   41. RY ( 5) C  2             0.00006     1.14742
   42. RY ( 6) C  2             0.00004     4.12780
   43. RY ( 7) C  2             0.00000     2.29648
   44. RY ( 8) C  2             0.00000     1.30615
   45. RY ( 9) C  2             0.00000     1.67121
   46. RY (10) C  2             0.00000     2.23653
          -------------------------------
                 Total Lewis    5.30773  ( 84.8021%)
           Valence non-Lewis    0.94192  ( 15.0492%)
           Rydberg non-Lewis    0.00931  (  0.1487%)
          -------------------------------
               Total unit  2    6.25896  (100.0000%)
              Charge unit  2   -0.25896

 Molecular unit  3  (C)
 ------ Lewis --------------------------------------
    3. CR ( 1) C  3             2.00000   -10.19181
   11. LP ( 1) C  3             1.23495    -0.08539  24(r),18(g),20(r),70(r)
                                                     17(r),26(r),16(r),23(r)
                                                     58(r),53(g),47(g),61(r)
                                                     60(r),38(r),48(g),56(g)
                                                     43(r),40(r),57(r),41(r)
                                                     25(r),62(r),22(r),30(r)
   12. LP ( 2) C  3             1.07035     0.02182  20(r),17(r),16(r),25(r)
                                                     24(r),26(r),58(r),23(r)
                                                     48(g),21(r),41(r),50(g)
                                                     62(r),70(r),51(g),18(g)
                                                     43(r),22(r),38(r),63(r)
                                                     66(r),71(r),27(r),72(r)
                                                     69(r),33(r),31(r),40(r)
                                                     57(r),32(r)
   13. LP ( 3) C  3             1.00243    -0.09970  59(r),55(g),39(r),65(r)
                                                     64(r),45(r)
 ------ non-Lewis ----------------------------------
   18. LV ( 1) C  3             0.94192    -0.05573
   47. RY ( 1) C  3             0.00565     1.17033
   48. RY ( 2) C  3             0.00255     0.77533
   49. RY ( 3) C  3             0.00081     1.38820
   50. RY ( 4) C  3             0.00018     2.13567
   51. RY ( 5) C  3             0.00006     1.14763
   52. RY ( 6) C  3             0.00004     4.12762
   53. RY ( 7) C  3             0.00000     2.29648
   54. RY ( 8) C  3             0.00000     1.61062
   55. RY ( 9) C  3             0.00000     1.36677
   56. RY (10) C  3             0.00000     2.23654
          -------------------------------
                 Total Lewis    5.30773  ( 84.8021%)
           Valence non-Lewis    0.94192  ( 15.0492%)
           Rydberg non-Lewis    0.00931  (  0.1487%)
          -------------------------------
               Total unit  3    6.25896  (100.0000%)
              Charge unit  3   -0.25896

 Molecular unit  4  (C)
 ------ Lewis --------------------------------------
    4. CR ( 1) C  4             2.00000   -10.18281
   14. LP ( 1) C  4             1.22680    -0.12577  26(r),25(r),18(r),20(g)
                                                     72(r),71(r),58(g),24(r)
                                                     61(g),48(r),60(g),62(g)
                                                     21(r),17(r),50(r),66(g)
                                                     47(r),51(r),23(r),22(r)
                                                     67(r),16(r),53(r)
   15. LP ( 2) C  4             1.20882    -0.04131  25(r),26(r),18(r),17(r)
                                                     71(r),72(r),20(g),24(r)
                                                     60(g),61(g),53(r),57(g)
                                                     51(r),63(g),40(r),50(r)
                                                     67(r),16(r),46(r),69(r)
                                                     21(r),37(r)
 ------ non-Lewis ----------------------------------
   19. LV ( 1) C  4             0.99647    -0.10958
   20. LV ( 2) C  4             0.96465     0.00809
   57. RY ( 1) C  4             0.00328     1.11216
   58. RY ( 2) C  4             0.00080     0.64554
   59. RY ( 3) C  4             0.00028     0.69733
   60. RY ( 4) C  4             0.00005     2.40044
   61. RY ( 5) C  4             0.00000     1.32986
   62. RY ( 6) C  4             0.00000     2.57605
   63. RY ( 7) C  4             0.00000     2.95951
   64. RY ( 8) C  4             0.00000     1.69897
   65. RY ( 9) C  4             0.00000     1.79676
   66. RY (10) C  4             0.00000     2.20852
          -------------------------------
                 Total Lewis    4.43562  ( 69.2939%)
           Valence non-Lewis    1.96112  ( 30.6369%)
           Rydberg non-Lewis    0.00443  (  0.0691%)
          -------------------------------
               Total unit  4    6.40116  (100.0000%)
              Charge unit  4   -0.40116

 Molecular unit  5  (H)
 ------ Lewis --------------------------------------
 ------ non-Lewis ----------------------------------
   21. LV ( 1) H  5             0.78944     0.09775
   67. RY ( 1) H  5             0.00076     0.65896
          -------------------------------
                 Total Lewis    0.00000  (  0.0000%)
           Valence non-Lewis    0.78944  ( 99.9033%)
           Rydberg non-Lewis    0.00076  (  0.0967%)
          -------------------------------
               Total unit  5    0.79020  (100.0000%)
              Charge unit  5    0.20980

 Molecular unit  6  (H)
 ------ Lewis --------------------------------------
 ------ non-Lewis ----------------------------------
   22. LV ( 1) H  6             0.77878     0.10237
   68. RY ( 1) H  6             0.00059     0.61711
          -------------------------------
                 Total Lewis    0.00000  (  0.0000%)
           Valence non-Lewis    0.77878  ( 99.9239%)
           Rydberg non-Lewis    0.00059  (  0.0761%)
          -------------------------------
               Total unit  6    0.77937  (100.0000%)
              Charge unit  6    0.22063

 Molecular unit  7  (H)
 ------ Lewis --------------------------------------
 ------ non-Lewis ----------------------------------
   23. LV ( 1) H  7             0.76920     0.10472
   69. RY ( 1) H  7             0.00110     0.60393
          -------------------------------
                 Total Lewis    0.00000  (  0.0000%)
           Valence non-Lewis    0.76920  ( 99.8575%)
           Rydberg non-Lewis    0.00110  (  0.1425%)
          -------------------------------
               Total unit  7    0.77030  (100.0000%)
              Charge unit  7    0.22970

 Molecular unit  8  (H)
 ------ Lewis --------------------------------------
 ------ non-Lewis ----------------------------------
   24. LV ( 1) H  8             0.76920     0.10472
   70. RY ( 1) H  8             0.00110     0.60392
          -------------------------------
                 Total Lewis    0.00000  (  0.0000%)
           Valence non-Lewis    0.76920  ( 99.8575%)
           Rydberg non-Lewis    0.00110  (  0.1425%)
          -------------------------------
               Total unit  8    0.77030  (100.0000%)
              Charge unit  8    0.22970

 Molecular unit  9  (H)
 ------ Lewis --------------------------------------
 ------ non-Lewis ----------------------------------
   25. LV ( 1) H  9             0.78944     0.09775
   71. RY ( 1) H  9             0.00076     0.65896
          -------------------------------
                 Total Lewis    0.00000  (  0.0000%)
           Valence non-Lewis    0.78944  ( 99.9033%)
           Rydberg non-Lewis    0.00076  (  0.0967%)
          -------------------------------
               Total unit  9    0.79020  (100.0000%)
              Charge unit  9    0.20980

 Molecular unit 10  (H)
 ------ Lewis --------------------------------------
 ------ non-Lewis ----------------------------------
   26. LV ( 1) H 10             0.77878     0.10237
   72. RY ( 1) H 10             0.00059     0.61711
          -------------------------------
                 Total Lewis    0.00000  (  0.0000%)
           Valence non-Lewis    0.77878  ( 99.9239%)
           Rydberg non-Lewis    0.00059  (  0.0761%)
          -------------------------------
               Total unit 10    0.77937  (100.0000%)
              Charge unit 10    0.22063

 $CHOOSE
   LONE 1 3 2 3 3 3 4 2 END
 $END

 NBO analysis completed in 0.14 CPU seconds (1 wall second)
 Maximum scratch memory used by NBO was 339862 words (2.59 MB)
 Maximum scratch memory used by G16NBO was 16482 words (0.13 MB)

 Opening RunExU unformatted file "/tmp/butadiene-sgp-16516.tmp/Gau-14239.EUF"
 Read unf file /tmp/butadiene-sgp-16516.tmp/Gau-14239.EUF:
 Label Gaussian matrix elements                                         IVers= 1 NLab= 2 Version=ES64L-G16RevB.01
 Title 1,3-butadiene single-point calc.                                
 NAtoms=    10 NBasis=    72 NBsUse=    72 ICharg=     0 Multip=     1 NE=    30 Len12L=8 Len4L=8 IOpCl= 0 ICGU= -1
 GAUSSIAN SCALARS                    NI= 1 NR= 1 NTot=       1 LenBuf=    2 NRI=1 N=    1000
 NPA CHARGES                         NI= 0 NR= 1 NTot=      10 LenBuf= 2048 NRI=1 N=      10
 Recovered energy= -155.985951917     dipole=     -0.026643616495      0.020392080488     -0.000000000000
 1\1\GINC-CU18\SP\RB3LYP\6-31G(d)\C4H6\WANG\22-Jan-2021\0\\# B3LYP/6-31
 G* POP=NBO6Read\\1,3-butadiene single-point calc.\\0,1\C,0,1.339919,-0
 .922552,0.\C,0,0.,-0.926478,0.\C,0,-0.894356,0.241893,0.\C,0,-0.540716
 ,1.534311,0.\H,0,1.921683,-0.004033,0.\H,0,1.904522,-1.850053,0.\H,0,-
 0.50663,-1.891193,0.\H,0,-1.957882,0.004699,0.\H,0,0.497843,1.856036,0
 .\H,0,-1.288622,2.321503,0.\\Version=ES64L-G16RevB.01\State=1-A'\HF=-1
 55.9859519\RMSD=1.837e-09\Dipole=-0.0266436,-0.0203921,0.\Quadrupole=1
 .341083,1.2879729,-2.6290559,0.0980857,0.,0.\PG=CS [SG(C4H6)]\\@


 ASKING DUMB QUESTIONS IS EASIER THAN CORECTING DUMB MISTAKES.
 Job cpu time:       0 days  0 hours  0 minutes 30.3 seconds.
 Elapsed time:       0 days  0 hours  0 minutes  2.2 seconds.
 File lengths (MBytes):  RWF=      6 Int=      0 D2E=      0 Chk=      2 Scr=      1
 Normal termination of Gaussian 16 at Fri Jan 22 09:54:19 2021.
