1,3-butadiene single-point calc.                                        
SP        RB3LYP                                                      6-31G(d)            
Number of atoms                            I               10
Info1-9                                    I   N=           9
          23          23           0           0           0         110
           1          18        -502
Full Title                                 C   N=           3
1,3-butadiene single-point calc.    
Route                                      C   N=           3
# B3LYP/6-31G* POP=NBO6Read         
Charge                                     I                0
Multiplicity                               I                1
Number of electrons                        I               30
Number of alpha electrons                  I               15
Number of beta electrons                   I               15
Number of basis functions                  I               72
Number of independent functions            I               72
Number of point charges in /Mol/           I                0
Number of translation vectors              I                0
Atomic numbers                             I   N=          10
           6           6           6           6           1           1
           1           1           1           1
Nuclear charges                            R   N=          10
  6.00000000E+00  6.00000000E+00  6.00000000E+00  6.00000000E+00  1.00000000E+00
  1.00000000E+00  1.00000000E+00  1.00000000E+00  1.00000000E+00  1.00000000E+00
Current cartesian coordinates              R   N=          30
  2.53207994E+00  1.74337117E+00  0.00000000E+00 -1.97060365E-16  1.75078987E+00
 -2.46519033E-32 -1.69008758E+00 -4.57111576E-01  0.00000000E+00 -1.02180448E+00
 -2.89942754E+00  0.00000000E+00  3.63145482E+00  7.62197705E-03 -4.93038066E-32
  3.59902473E+00  3.49609419E+00  0.00000000E+00 -9.57392209E-01  3.57383687E+00
  4.93038066E-32 -3.69986051E+00 -8.88016655E-03  0.00000000E+00  9.40787680E-01
 -3.50739939E+00  0.00000000E+00 -2.43514177E+00 -4.38700503E+00 -9.86076132E-32
Number of symbols in /Mol/                 I                0
Force Field                                I                0
Atom Types                                 C   N=          10
                                                            
                                                            
Int Atom Types                             I   N=          10
           0           0           0           0           0           0
           0           0           0           0
MM charges                                 R   N=          10
  0.00000000E+00  0.00000000E+00  0.00000000E+00  0.00000000E+00  0.00000000E+00
  0.00000000E+00  0.00000000E+00  0.00000000E+00  0.00000000E+00  0.00000000E+00
Integer atomic weights                     I   N=          10
          12          12          12          12           1           1
           1           1           1           1
Real atomic weights                        R   N=          10
  1.20000000E+01  1.20000000E+01  1.20000000E+01  1.20000000E+01  1.00782504E+00
  1.00782504E+00  1.00782504E+00  1.00782504E+00  1.00782504E+00  1.00782504E+00
Atom fragment info                         I   N=          10
           0           0           0           0           0           0
           0           0           0           0
Atom residue num                           I   N=          10
           0           0           0           0           0           0
           0           0           0           0
Nuclear spins                              I   N=          10
           0           0           0           0           1           1
           1           1           1           1
Nuclear ZEff                               R   N=          10
 -3.60000000E+00 -3.60000000E+00 -3.60000000E+00 -3.60000000E+00 -1.00000000E+00
 -1.00000000E+00 -1.00000000E+00 -1.00000000E+00 -1.00000000E+00 -1.00000000E+00
Nuclear ZNuc                               R   N=          10
  6.00000000E+00  6.00000000E+00  6.00000000E+00  6.00000000E+00  1.00000000E+00
  1.00000000E+00  1.00000000E+00  1.00000000E+00  1.00000000E+00  1.00000000E+00
Nuclear QMom                               R   N=          10
  0.00000000E+00  0.00000000E+00  0.00000000E+00  0.00000000E+00  0.00000000E+00
  0.00000000E+00  0.00000000E+00  0.00000000E+00  0.00000000E+00  0.00000000E+00
Nuclear GFac                               R   N=          10
  0.00000000E+00  0.00000000E+00  0.00000000E+00  0.00000000E+00  2.79284600E+00
  2.79284600E+00  2.79284600E+00  2.79284600E+00  2.79284600E+00  2.79284600E+00
MicOpt                                     I   N=          10
          -1          -1          -1          -1          -1          -1
          -1          -1          -1          -1
Number of residues                         I                0
Number of secondary structures             I                0
SymInf integers                            I   N=          26
           1           2           1           1           1           1
           1          -1           0           0           0           0
           0           0           0           0           0           0
           0           0           0           0           0           0
           0           0
RotTr to input orientation                 R   N=          12
  1.00000000E+00  1.43914177E-07 -7.44378734E-17  1.43914177E-07 -1.00000000E+00
 -9.72450555E-17 -7.44378874E-17  9.72450448E-17 -1.00000000E+00 -2.51963483E-07
  1.88972612E-07  0.00000000E+00
Number of contracted shells                I               28
Number of primitive shells                 I               68
Pure/Cartesian d shells                    I                1
Pure/Cartesian f shells                    I                0
Highest angular momentum                   I                2
Largest degree of contraction              I                6
Shell types                                I   N=          28
           0          -1          -1           2           0          -1
          -1           2           0          -1          -1           2
           0          -1          -1           2           0           0
           0           0           0           0           0           0
           0           0           0           0
Number of primitives per shell             I   N=          28
           6           3           1           1           6           3
           1           1           6           3           1           1
           6           3           1           1           3           1
           3           1           3           1           3           1
           3           1           3           1
Shell to atom map                          I   N=          28
           1           1           1           1           2           2
           2           2           3           3           3           3
           4           4           4           4           5           5
           6           6           7           7           8           8
           9           9          10          10
Primitive exponents                        R   N=          68
  3.04752488E+03  4.57369518E+02  1.03948685E+02  2.92101553E+01  9.28666296E+00
  3.16392696E+00  7.86827235E+00  1.88128854E+00  5.44249258E-01  1.68714478E-01
  8.00000000E-01  3.04752488E+03  4.57369518E+02  1.03948685E+02  2.92101553E+01
  9.28666296E+00  3.16392696E+00  7.86827235E+00  1.88128854E+00  5.44249258E-01
  1.68714478E-01  8.00000000E-01  3.04752488E+03  4.57369518E+02  1.03948685E+02
  2.92101553E+01  9.28666296E+00  3.16392696E+00  7.86827235E+00  1.88128854E+00
  5.44249258E-01  1.68714478E-01  8.00000000E-01  3.04752488E+03  4.57369518E+02
  1.03948685E+02  2.92101553E+01  9.28666296E+00  3.16392696E+00  7.86827235E+00
  1.88128854E+00  5.44249258E-01  1.68714478E-01  8.00000000E-01  1.87311370E+01
  2.82539436E+00  6.40121692E-01  1.61277759E-01  1.87311370E+01  2.82539436E+00
  6.40121692E-01  1.61277759E-01  1.87311370E+01  2.82539436E+00  6.40121692E-01
  1.61277759E-01  1.87311370E+01  2.82539436E+00  6.40121692E-01  1.61277759E-01
  1.87311370E+01  2.82539436E+00  6.40121692E-01  1.61277759E-01  1.87311370E+01
  2.82539436E+00  6.40121692E-01  1.61277759E-01
Contraction coefficients                   R   N=          68
  1.83473713E-03  1.40373228E-02  6.88426223E-02  2.32184443E-01  4.67941348E-01
  3.62311985E-01 -1.19332420E-01 -1.60854152E-01  1.14345644E+00  1.00000000E+00
  1.00000000E+00  1.83473713E-03  1.40373228E-02  6.88426223E-02  2.32184443E-01
  4.67941348E-01  3.62311985E-01 -1.19332420E-01 -1.60854152E-01  1.14345644E+00
  1.00000000E+00  1.00000000E+00  1.83473713E-03  1.40373228E-02  6.88426223E-02
  2.32184443E-01  4.67941348E-01  3.62311985E-01 -1.19332420E-01 -1.60854152E-01
  1.14345644E+00  1.00000000E+00  1.00000000E+00  1.83473713E-03  1.40373228E-02
  6.88426223E-02  2.32184443E-01  4.67941348E-01  3.62311985E-01 -1.19332420E-01
 -1.60854152E-01  1.14345644E+00  1.00000000E+00  1.00000000E+00  3.34946043E-02
  2.34726953E-01  8.13757326E-01  1.00000000E+00  3.34946043E-02  2.34726953E-01
  8.13757326E-01  1.00000000E+00  3.34946043E-02  2.34726953E-01  8.13757326E-01
  1.00000000E+00  3.34946043E-02  2.34726953E-01  8.13757326E-01  1.00000000E+00
  3.34946043E-02  2.34726953E-01  8.13757326E-01  1.00000000E+00  3.34946043E-02
  2.34726953E-01  8.13757326E-01  1.00000000E+00
P(S=P) Contraction coefficients            R   N=          68
  0.00000000E+00  0.00000000E+00  0.00000000E+00  0.00000000E+00  0.00000000E+00
  0.00000000E+00  6.89990666E-02  3.16423961E-01  7.44308291E-01  1.00000000E+00
  0.00000000E+00  0.00000000E+00  0.00000000E+00  0.00000000E+00  0.00000000E+00
  0.00000000E+00  0.00000000E+00  6.89990666E-02  3.16423961E-01  7.44308291E-01
  1.00000000E+00  0.00000000E+00  0.00000000E+00  0.00000000E+00  0.00000000E+00
  0.00000000E+00  0.00000000E+00  0.00000000E+00  6.89990666E-02  3.16423961E-01
  7.44308291E-01  1.00000000E+00  0.00000000E+00  0.00000000E+00  0.00000000E+00
  0.00000000E+00  0.00000000E+00  0.00000000E+00  0.00000000E+00  6.89990666E-02
  3.16423961E-01  7.44308291E-01  1.00000000E+00  0.00000000E+00  0.00000000E+00
  0.00000000E+00  0.00000000E+00  0.00000000E+00  0.00000000E+00  0.00000000E+00
  0.00000000E+00  0.00000000E+00  0.00000000E+00  0.00000000E+00  0.00000000E+00
  0.00000000E+00  0.00000000E+00  0.00000000E+00  0.00000000E+00  0.00000000E+00
  0.00000000E+00  0.00000000E+00  0.00000000E+00  0.00000000E+00  0.00000000E+00
  0.00000000E+00  0.00000000E+00  0.00000000E+00
Coordinates of each shell                  R   N=          84
  2.53207994E+00  1.74337117E+00  1.07443544E-32  2.53207994E+00  1.74337117E+00
  1.07443544E-32  2.53207994E+00  1.74337117E+00  1.07443544E-32  2.53207994E+00
  1.74337117E+00  1.07443544E-32 -1.31373563E-16  1.75078987E+00  1.07900756E-32
 -1.31373563E-16  1.75078987E+00  1.07900756E-32 -1.31373563E-16  1.75078987E+00
  1.07900756E-32 -1.31373563E-16  1.75078987E+00  1.07900756E-32 -1.69008758E+00
 -4.57111576E-01 -2.81716759E-33 -1.69008758E+00 -4.57111576E-01 -2.81716759E-33
 -1.69008758E+00 -4.57111576E-01 -2.81716759E-33 -1.69008758E+00 -4.57111576E-01
 -2.81716759E-33 -1.02180448E+00 -2.89942754E+00 -1.78691018E-32 -1.02180448E+00
 -2.89942754E+00 -1.78691018E-32 -1.02180448E+00 -2.89942754E+00 -1.78691018E-32
 -1.02180448E+00 -2.89942754E+00 -1.78691018E-32  3.63145482E+00  7.62197705E-03
  4.69740603E-35  3.63145482E+00  7.62197705E-03  4.69740603E-35  3.59902473E+00
  3.49609419E+00  2.15463440E-32  3.59902473E+00  3.49609419E+00  2.15463440E-32
 -9.57392209E-01  3.57383687E+00  2.20254702E-32 -9.57392209E-01  3.57383687E+00
  2.20254702E-32 -3.69986051E+00 -8.88016655E-03 -5.47282517E-35 -3.69986051E+00
 -8.88016655E-03 -5.47282517E-35  9.40787680E-01 -3.50739939E+00 -2.16160177E-32
  9.40787680E-01 -3.50739939E+00 -2.16160177E-32 -2.43514177E+00 -4.38700503E+00
 -2.70370059E-32 -2.43514177E+00 -4.38700503E+00 -2.70370059E-32
Num ILSW                                   I              100
ILSW                                       I   N=         100
           0           1           0           0           2           0
           0           0           0           0         402          -1
           5           0           0           0           0           0
           0           0           1           0           0           0
           1           0           0           0           0           0
           0           0      100000           0          -1           0
           0           0           0           0           0           0
           0           0           0           1           0           0
           0 -2000000000           1           0           0           0
           0           0           4          52           0           0
           0           0           5           0           0           0
           0           0           0           0           0           1
           0           0           0           0           0           0
           0           0           0           0           0           0
           0           0           0           0           0           0
           0           0           0           0           0           0
           0           0           0           0
Num RLSW                                   I               52
RLSW                                       R   N=          52
  8.00000000E-01  7.20000000E-01  1.00000000E+00  8.10000000E-01  2.00000000E-01
  0.00000000E+00  0.00000000E+00  1.00000000E+00  0.00000000E+00  0.00000000E+00
  0.00000000E+00  0.00000000E+00  1.00000000E+00  0.00000000E+00  0.00000000E+00
  0.00000000E+00  0.00000000E+00  1.00000000E+00  0.00000000E+00  0.00000000E+00
  0.00000000E+00  0.00000000E+00  1.00000000E+00  0.00000000E+00  0.00000000E+00
  0.00000000E+00  0.00000000E+00  1.00000000E+00  0.00000000E+00  0.00000000E+00
  0.00000000E+00  0.00000000E+00  1.00000000E+00  0.00000000E+00  0.00000000E+00
  0.00000000E+00  0.00000000E+00  0.00000000E+00  1.00000000E+00  1.00000000E+00
  0.00000000E+00  1.00000000E+00  0.00000000E+00  0.00000000E+00  0.00000000E+00
  0.00000000E+00  0.00000000E+00  0.00000000E+00  0.00000000E+00  0.00000000E+00
  0.00000000E+00  0.00000000E+00
MxBond                                     I                3
NBond                                      I   N=          10
           3           3           3           3           1           1
           1           1           1           1
IBond                                      I   N=          30
           2           5           6           1           3           7
           2           4           8           3           9          10
           1           0           0           1           0           0
           2           0           0           3           0           0
           4           0           0           4           0           0
RBond                                      R   N=          30
  2.00000000E+00  1.00000000E+00  1.00000000E+00  2.00000000E+00  1.00000000E+00
  1.00000000E+00  1.00000000E+00  2.00000000E+00  1.00000000E+00  2.00000000E+00
  1.00000000E+00  1.00000000E+00  1.00000000E+00  0.00000000E+00  0.00000000E+00
  1.00000000E+00  0.00000000E+00  0.00000000E+00  1.00000000E+00  0.00000000E+00
  0.00000000E+00  1.00000000E+00  0.00000000E+00  0.00000000E+00  1.00000000E+00
  0.00000000E+00  0.00000000E+00  1.00000000E+00  0.00000000E+00  0.00000000E+00
Virial Ratio                               R      2.010310726037068E+00
SCF Energy                                 R     -1.559859519167069E+02
Total Energy                               R     -1.559859519167069E+02
RMS Density                                R      1.837470412633254E-09
Job Status                                 I                1
Nuclear derivative order                   I                0
External E-field                           R   N=          35
  0.00000000E+00  0.00000000E+00  0.00000000E+00  0.00000000E+00  0.00000000E+00
  0.00000000E+00  0.00000000E+00  0.00000000E+00  0.00000000E+00  0.00000000E+00
  0.00000000E+00  0.00000000E+00  0.00000000E+00  0.00000000E+00  0.00000000E+00
  0.00000000E+00  0.00000000E+00  0.00000000E+00  0.00000000E+00  0.00000000E+00
  0.00000000E+00  0.00000000E+00  0.00000000E+00  0.00000000E+00  0.00000000E+00
  0.00000000E+00  0.00000000E+00  0.00000000E+00  0.00000000E+00  0.00000000E+00
  0.00000000E+00  0.00000000E+00  0.00000000E+00  0.00000000E+00  0.00000000E+00
IOpCl                                      I                0
IROHF                                      I                0
Alpha Orbital Energies                     R   N=          72
 -1.01920160E+01 -1.01917055E+01 -1.01828212E+01 -1.01828172E+01 -7.98240960E-01
 -7.24722870E-01 -6.18223206E-01 -5.26621417E-01 -4.87556888E-01 -4.36547346E-01
 -4.16171629E-01 -3.59786404E-01 -3.47861971E-01 -3.17074101E-01 -2.27331652E-01
 -3.01478446E-02  9.64232858E-02  1.00826726E-01  1.14728235E-01  1.53156939E-01
  1.92056374E-01  2.01638070E-01  2.10050887E-01  3.06196408E-01  3.40577656E-01
  4.32511068E-01  4.67271673E-01  5.27435866E-01  5.32185645E-01  5.86777419E-01
  5.95404771E-01  6.26916100E-01  6.41012213E-01  6.77196499E-01  6.89576353E-01
  6.93261622E-01  8.33766837E-01  8.60354007E-01  8.81061468E-01  8.93531026E-01
  9.30167424E-01  9.56138019E-01  9.86790339E-01  1.05507964E+00  1.07751160E+00
  1.18332642E+00  1.23858499E+00  1.34035526E+00  1.45807803E+00  1.48271593E+00
  1.52120492E+00  1.65584840E+00  1.75241904E+00  1.77710482E+00  1.87982444E+00
  1.96074466E+00  2.00785889E+00  2.10514862E+00  2.16316390E+00  2.21992906E+00
  2.25179980E+00  2.27871323E+00  2.54174508E+00  2.54998520E+00  2.55357965E+00
  2.62110055E+00  2.86556698E+00  3.07912773E+00  4.06615602E+00  4.14857293E+00
  4.20071938E+00  4.48265266E+00
Alpha MO coefficients                      R   N=        5184
  3.15790975E-02  1.11556634E-03  2.97294074E-04  4.54430171E-05  0.00000000E+00
  2.74848343E-03 -1.35745392E-03 -3.70148704E-04  0.00000000E+00 -4.57056854E-04
 -4.28402665E-04 -4.42182009E-04  1.13749677E-05  0.00000000E+00  0.00000000E+00
  7.00387092E-01  3.45803633E-02  6.74436762E-05  9.40418857E-05  0.00000000E+00
 -7.27462102E-03 -9.03530992E-04 -2.91948511E-04  0.00000000E+00 -6.66042110E-03
 -6.86761590E-03 -6.88849101E-03 -1.19321426E-04  0.00000000E+00  0.00000000E+00
  7.01941846E-01  3.46581721E-02 -7.25455444E-05 -8.92284959E-05  0.00000000E+00
 -7.30711611E-03  3.87461966E-05  9.47426266E-04  0.00000000E+00 -6.81562602E-03
 -6.73985960E-03 -6.90314966E-03 -1.63126546E-04  0.00000000E+00  0.00000000E+00
  3.16492117E-02  1.11826745E-03  3.39357518E-05 -2.99312801E-04  0.00000000E+00
  2.75779169E-03  3.88720196E-06  1.41121792E-03  0.00000000E+00 -4.36453772E-04
 -4.51363289E-04 -4.42981562E-04  1.84074463E-05  0.00000000E+00  0.00000000E+00
 -1.10154901E-04 -9.88889353E-05 -3.06288635E-05  2.66028766E-04 -2.76800676E-04
  1.38153941E-03 -2.77329290E-04  1.38345707E-03 -1.10463158E-04 -9.97790676E-05
 -3.06877334E-05  2.66514182E-04  3.30430221E-02  1.29076875E-03  2.26805445E-04
 -2.50635052E-05  0.00000000E+00  4.16716710E-03 -1.69926768E-03 -9.02997049E-04
  0.00000000E+00 -6.12549191E-04 -4.80460613E-04 -3.73662337E-04  8.32048741E-05
  0.00000000E+00  0.00000000E+00  7.02115432E-01  3.51372781E-02 -1.07467357E-04
 -3.20911539E-04  0.00000000E+00 -1.45906941E-02 -4.27358854E-04  3.18109056E-03
  0.00000000E+00 -6.04708839E-03 -6.34813638E-03 -6.62394311E-03  2.25221912E-04
  0.00000000E+00  0.00000000E+00 -7.00561355E-01 -3.50605440E-02 -2.81896256E-04
 -1.87738671E-04  0.00000000E+00  1.45745518E-02  3.18249478E-03  4.20064806E-04
  0.00000000E+00  6.41082630E-03  5.95438020E-03  6.60864731E-03 -1.07264724E-04
  0.00000000E+00  0.00000000E+00 -3.29699049E-02 -1.28815542E-03 -8.33362390E-05
  2.11721223E-04  0.00000000E+00 -4.16112483E-03 -4.27962042E-04 -1.87298226E-03
  0.00000000E+00  5.24788655E-04  5.66193066E-04  3.72646732E-04 -1.10256914E-04
  0.00000000E+00  0.00000000E+00 -1.35915976E-04 -3.84926404E-04 -2.80746876E-05
  2.07662607E-04 -2.35377180E-04  8.78631145E-04  2.34770004E-04 -8.75542282E-04
  1.35665599E-04  3.84712385E-04  2.80077148E-05 -2.07058554E-04 -6.99802751E-01
 -3.47882393E-02  3.44839027E-05  4.14529832E-05 -0.00000000E+00  9.95264606E-03
 -9.08756594E-04 -2.31141753E-04 -0.00000000E+00  6.46020260E-03  6.64478155E-03
  6.86042190E-03 -4.95275001E-06 -0.00000000E+00 -0.00000000E+00  3.32859159E-02
  1.97080261E-03  3.00642658E-04  9.95450642E-06 -0.00000000E+00 -4.04790487E-03
 -1.78162401E-03  1.18692977E-04 -0.00000000E+00 -4.26202837E-05 -9.84282995E-05
 -2.45579940E-04  4.79003417E-05 -0.00000000E+00 -0.00000000E+00 -3.34089232E-02
 -1.97855644E-03 -6.94028728E-05  2.93974584E-04 -0.00000000E+00  4.06136236E-03
  5.81293277E-04 -1.69419730E-03 -0.00000000E+00  1.16208254E-04  2.58784197E-05
  2.46310469E-04 -2.49594735E-05 -0.00000000E+00 -0.00000000E+00  7.02568522E-01
  3.49255397E-02  3.08589436E-05  4.41735120E-05 -0.00000000E+00 -9.98899857E-03
  1.54042214E-05 -9.40221189E-04 -0.00000000E+00 -6.66072449E-03 -6.49638006E-03
 -6.88777831E-03 -4.97368123E-05 -0.00000000E+00 -0.00000000E+00  2.17296703E-04
 -1.79810324E-03  2.34718916E-04 -1.45645785E-03  2.27252821E-05  1.10580641E-04
 -2.28493701E-05 -1.10357826E-04 -2.18286413E-04  1.80362964E-03 -2.35616838E-04
  1.46277629E-03  7.02613096E-01  3.48760193E-02 -2.60457428E-05  3.75112201E-05
  0.00000000E+00 -9.22867967E-03  7.13883082E-04 -1.51718710E-04  0.00000000E+00
 -6.51642486E-03 -6.72189710E-03 -6.94925414E-03 -2.12343250E-05  0.00000000E+00
  0.00000000E+00 -3.20295602E-02 -2.00780930E-03 -3.21771916E-04  4.76412855E-05
  0.00000000E+00  3.41912108E-03  1.41259332E-03 -1.39662808E-05  0.00000000E+00
  8.57178625E-05  1.92079746E-04  1.93937381E-04  1.36959394E-05  0.00000000E+00
  0.00000000E+00 -3.18949904E-02 -1.99985619E-03 -1.29728489E-04  2.97007995E-04
  0.00000000E+00  3.40304883E-03  3.79991846E-04 -1.35322957E-03  0.00000000E+00
  1.78362171E-04  9.88209042E-05  1.92941137E-04  4.28834832E-05  0.00000000E+00
  0.00000000E+00  6.99847781E-01  3.47385638E-02 -4.31167568E-05  1.51714835E-05
  0.00000000E+00 -9.18933980E-03  3.32731221E-04 -6.45789702E-04  0.00000000E+00
 -6.67239832E-03 -6.51414222E-03 -6.92214643E-03 -7.79324331E-05  0.00000000E+00
  0.00000000E+00 -2.53228516E-04  1.39933017E-03 -2.25309870E-04  1.61578618E-03
 -3.12504895E-05  4.96229061E-05 -3.11632701E-05  5.00516054E-05 -2.52377059E-04
  1.39230733E-03 -2.24389563E-04  1.61001825E-03 -9.26781321E-02  1.77054883E-01
 -7.41015733E-02 -8.01109259E-03  0.00000000E+00  1.31076948E-01 -1.00281448E-02
 -3.35432763E-03  0.00000000E+00  6.68368765E-03 -7.80083653E-04 -1.01071791E-02
  6.85829437E-04  0.00000000E+00  0.00000000E+00 -1.34363082E-01  2.61072770E-01
  1.77371550E-02 -4.50682283E-02  0.00000000E+00  1.72149962E-01 -7.42823168E-03
 -2.94423264E-03  0.00000000E+00  3.93188279E-03  3.03105736E-03 -1.42435575E-02
  3.18791550E-03  0.00000000E+00  0.00000000E+00 -1.34362809E-01  2.61072439E-01
  4.81378008E-02 -5.35537426E-03  0.00000000E+00  1.72148861E-01  9.02299436E-04
  7.93978095E-03  0.00000000E+00  1.70100207E-03  5.26198577E-03 -1.42435202E-02
  2.49092782E-03  0.00000000E+00  0.00000000E+00 -9.26786755E-02  1.77055839E-01
 -1.16128787E-02  7.36230428E-02  0.00000000E+00  1.31078655E-01  6.20308096E-04
  1.05570732E-02  0.00000000E+00 -5.70475143E-04  6.47417452E-03 -1.01072836E-02
 -1.57965405E-03  0.00000000E+00  0.00000000E+00  4.60875960E-02  9.76850188E-03
  4.15158870E-02  7.96504092E-03  6.54166654E-02  9.62743239E-03  6.54161496E-02
  9.62706466E-03  4.60894821E-02  9.76889984E-03  4.15158172E-02  7.96536169E-03
 -1.29393364E-01  2.50641450E-01 -6.25898212E-02  1.39784450E-02  0.00000000E+00
  2.15516871E-01 -3.36730137E-03 -3.08421163E-03  0.00000000E+00  5.32704661E-03
  1.13334923E-03 -1.32397572E-02 -7.75001490E-04  0.00000000E+00  0.00000000E+00
 -9.01886542E-02  1.80839493E-01  1.17212351E-01  5.18087690E-02  0.00000000E+00
  1.16396611E-01  3.37955005E-03  3.36987116E-02  0.00000000E+00  5.55551708E-03
 -7.24533420E-03 -8.15383372E-03 -6.06992338E-03  0.00000000E+00  0.00000000E+00
  9.01883822E-02 -1.80839116E-01  1.94064398E-02  1.26670922E-01  0.00000000E+00
 -1.16395720E-01  3.16470994E-02  1.20598072E-02  0.00000000E+00  3.72304263E-03
 -2.03321581E-03  8.15380686E-03  8.96789357E-03  0.00000000E+00  0.00000000E+00
  1.29392691E-01 -2.50640161E-01  2.98332860E-02 -5.67687539E-02  0.00000000E+00
 -2.15516924E-01 -2.09883704E-03 -4.05689651E-03  0.00000000E+00 -1.75773181E-03
 -4.70262320E-03  1.32397156E-02  1.88954628E-03  0.00000000E+00  0.00000000E+00
  6.90716984E-02  7.82490167E-03  7.92652450E-02  2.03001356E-02  5.58246944E-02
  5.01740656E-03 -5.58235432E-02 -5.01697102E-03 -6.90728190E-02 -7.82475280E-03
 -7.92643657E-02 -2.03002688E-02 -1.06110883E-01  2.11142704E-01  7.07331535E-02
 -7.72819392E-05  0.00000000E+00  1.83066778E-01  3.14312957E-02  1.22380995E-03
  0.00000000E+00 -4.36786450E-03  8.08817705E-03 -9.99410430E-03 -3.82937215E-04
  0.00000000E+00  0.00000000E+00  7.48297002E-02 -1.52963982E-01  1.88751855E-01
  2.84381201E-02  0.00000000E+00 -1.28933280E-01  5.69118358E-02 -4.78492811E-04
  0.00000000E+00  5.06736930E-03 -7.03425890E-03  6.81116749E-03 -2.74617290E-03
  0.00000000E+00  0.00000000E+00  7.48304578E-02 -1.52965815E-01  2.18296212E-02
 -1.89630223E-01  0.00000000E+00 -1.28933031E-01  1.53231317E-02 -5.48128976E-02
  0.00000000E+00 -5.01070532E-03  3.04391317E-03  6.81119453E-03 -5.89373255E-03
  0.00000000E+00  0.00000000E+00 -1.06111999E-01  2.11145181E-01  1.85446502E-02
 -6.82595368E-02  0.00000000E+00  1.83067574E-01  7.02431384E-03 -3.06609915E-02
  0.00000000E+00  7.40647282E-03 -3.68620151E-03 -9.99418904E-03  3.29474137E-03
  0.00000000E+00  0.00000000E+00  1.02865583E-01  4.64233522E-02  9.95056644E-02
  4.00052394E-02 -8.58268842E-02 -3.35781672E-02 -8.58286485E-02 -3.35783256E-02
  1.02867282E-01  4.64248375E-02  9.95065490E-02  4.00051975E-02 -6.17922757E-02
  1.26713884E-01  1.99829112E-01 -5.21423408E-02  0.00000000E+00  1.17593320E-01
  8.23849333E-02 -1.13106656E-02  0.00000000E+00 -7.88241641E-03  1.22293416E-02
 -5.21953816E-03  1.12407613E-03  0.00000000E+00  0.00000000E+00  8.78268001E-02
 -1.83587807E-01 -2.03409664E-03 -1.30055139E-01  0.00000000E+00 -1.54695594E-01
  3.24989827E-02 -5.80195974E-02  0.00000000E+00  8.08671519E-03 -2.81533175E-03
  6.71874380E-03  9.91415149E-03  0.00000000E+00  0.00000000E+00 -8.78266381E-02
  1.83587751E-01 -1.25020492E-01 -3.59168920E-02  0.00000000E+00  1.54697121E-01
 -6.44957507E-02  1.62241352E-02  0.00000000E+00  6.39998858E-03 -1.16712023E-02
 -6.71864750E-03 -5.39010348E-03  0.00000000E+00  0.00000000E+00  6.17907138E-02
 -1.26710648E-01 -1.02512112E-01  1.79274081E-01  0.00000000E+00 -1.17589166E-01
 -3.24297501E-02  7.65705849E-02  0.00000000E+00 -1.03673971E-02  6.02085846E-03
  5.21947748E-03 -6.82423244E-03  0.00000000E+00  0.00000000E+00  1.30468654E-01
  6.94957963E-02  8.90758750E-02  4.47072520E-02 -1.36355007E-01 -6.58542025E-02
  1.36358870E-01  6.58561406E-02 -1.30466118E-01 -6.94940933E-02 -8.90709185E-02
 -4.47045623E-02  1.13447513E-02 -2.44327611E-02 -5.70264763E-02 -2.19863045E-01
  0.00000000E+00 -2.85070058E-02 -2.48347724E-02 -8.85525416E-02  0.00000000E+00
  1.85037966E-03 -3.19311226E-03  6.32145379E-04 -2.20451602E-03  0.00000000E+00
  0.00000000E+00 -8.02355265E-03  1.92825006E-02  3.81286179E-02 -2.59136725E-01
  0.00000000E+00  9.52322029E-03  1.39917191E-02 -8.14858081E-02  0.00000000E+00
 -4.52257488E-03 -1.14884166E-03 -1.42711991E-04  2.43312738E-03  0.00000000E+00
  0.00000000E+00 -8.02514994E-03  1.92861670E-02  2.60102995E-01  3.08475878E-02
  0.00000000E+00  9.52293448E-03  8.23107727E-02  7.77074393E-03  0.00000000E+00
 -2.44051699E-03 -3.23098811E-03 -1.42831571E-04  3.08318871E-03  0.00000000E+00
  0.00000000E+00  1.13476188E-02 -2.44390301E-02  1.97351107E-01  1.12467319E-01
  0.00000000E+00 -2.85111081E-02  7.89976173E-02  4.71014915E-02  0.00000000E+00
 -1.88682416E-03  5.44001399E-04  6.32211004E-04 -3.37212763E-03  0.00000000E+00
  0.00000000E+00  7.35537690E-02  5.25749794E-02 -1.26930352E-01 -7.94552178E-02
 -1.25388041E-01 -9.33228334E-02 -1.25386047E-01 -9.33221939E-02  7.35541638E-02
  5.25756967E-02 -1.26939843E-01 -7.94606855E-02 -2.12374963E-03  6.39416604E-03
 -2.86868135E-01  9.23524692E-02  0.00000000E+00 -2.39648812E-02 -9.07467345E-02
  3.90045340E-02  0.00000000E+00  4.78801262E-03 -1.35674374E-02  1.95293361E-04
  4.26980071E-03  0.00000000E+00  0.00000000E+00 -1.27967816E-02  2.48178279E-02
  2.90840755E-01  3.48625395E-02  0.00000000E+00  1.89145738E-02  1.00890148E-01
  7.93575771E-03  0.00000000E+00 -4.78696773E-04 -4.65403794E-03 -9.36391691E-04
  1.48043070E-03  0.00000000E+00  0.00000000E+00 -1.27979285E-02  2.48203865E-02
  4.22710603E-02 -2.89851708E-01  0.00000000E+00  1.89167098E-02  1.86760446E-02
 -9.94654247E-02  0.00000000E+00 -5.01517263E-03 -1.17672095E-04 -9.36442289E-04
  6.35105182E-05  0.00000000E+00  0.00000000E+00 -2.12195736E-03  6.39051722E-03
 -1.64062731E-01  2.52796272E-01  0.00000000E+00 -2.39705360E-02 -6.13488677E-02
  7.74125607E-02  0.00000000E+00 -1.41802051E-02  5.40121137E-03  1.95474450E-04
 -1.65454579E-03  0.00000000E+00  0.00000000E+00 -1.43726964E-01 -1.17110111E-01
 -4.33124834E-02 -3.76173747E-02 -5.17976068E-02 -4.54290086E-02 -5.17912308E-02
 -4.54237363E-02 -1.43731565E-01 -1.17112872E-01 -4.33069646E-02 -3.76121338E-02
  1.16980996E-02 -2.34825444E-02  1.65971549E-01  2.74068479E-01  0.00000000E+00
 -7.57012668E-02  6.96704904E-02  1.02016143E-01  0.00000000E+00 -3.85468977E-03