C3H3+1                                                                  
SP        RM062X                                                      6-31G(d)            
Number of atoms                            I                6
Info1-9                                    I   N=           9
          18          18           0           0           0         110
           1          18       -5502
Full Title                                 C   N=           1
C3H3+1      
Route                                      C   N=           4
# M062X/6-31G* fchk=All Pop=NBO6Read SYMM=loose 
Charge                                     I                1
Multiplicity                               I                1
Number of electrons                        I               20
Number of alpha electrons                  I               10
Number of beta electrons                   I               10
Number of basis functions                  I               51
Number of independent functions            I               51
Number of point charges in /Mol/           I                0
Number of translation vectors              I                0
Atomic numbers                             I   N=           6
           6           6           6           1           1           1
Nuclear charges                            R   N=           6
  6.00000000E+00  6.00000000E+00  6.00000000E+00  1.00000000E+00  1.00000000E+00
  1.00000000E+00
Current cartesian coordinates              R   N=          18
 -2.67316030E-18  1.48633520E+00  4.83815560E-24 -1.28720404E+00 -7.43167599E-01
  4.83815562E-24  1.28720404E+00 -7.43167599E-01  4.83815552E-24 -6.35819047E-18
  3.53532177E+00  1.15077923E-23 -3.06167846E+00 -1.76766089E+00  1.15077924E-23
  3.06167846E+00 -1.76766089E+00  1.15077921E-23
Number of symbols in /Mol/                 I                0
Force Field                                I                0
Atom Types                                 C   N=           6
                                                            
            
Int Atom Types                             I   N=           6
           0           0           0           0           0           0
MM charges                                 R   N=           6
  0.00000000E+00  0.00000000E+00  0.00000000E+00  0.00000000E+00  0.00000000E+00
  0.00000000E+00
Integer atomic weights                     I   N=           6
          12          12          12           1           1           1
Real atomic weights                        R   N=           6
  1.20000000E+01  1.20000000E+01  1.20000000E+01  1.00782504E+00  1.00782504E+00
  1.00782504E+00
Atom fragment info                         I   N=           6
           0           0           0           0           0           0
Atom residue num                           I   N=           6
           0           0           0           0           0           0
Nuclear spins                              I   N=           6
           0           0           0           1           1           1
Nuclear ZEff                               R   N=           6
 -3.60000000E+00 -3.60000000E+00 -3.60000000E+00 -1.00000000E+00 -1.00000000E+00
 -1.00000000E+00
Nuclear ZNuc                               R   N=           6
  6.00000000E+00  6.00000000E+00  6.00000000E+00  1.00000000E+00  1.00000000E+00
  1.00000000E+00
Nuclear QMom                               R   N=           6
  0.00000000E+00  0.00000000E+00  0.00000000E+00  0.00000000E+00  0.00000000E+00
  0.00000000E+00
Nuclear GFac                               R   N=           6
  0.00000000E+00  0.00000000E+00  0.00000000E+00  2.79284600E+00  2.79284600E+00
  2.79284600E+00
MicOpt                                     I   N=           6
          -1          -1          -1          -1          -1          -1
Number of residues                         I                0
Number of secondary structures             I                0
SymInf integers                            I   N=          26
           2           4           1           1           1          -1
           1          -1          -1           1           1           1
           1          -1           0           0           0           0
           0           0           0           0           0           0
           0           0
RotTr to input orientation                 R   N=          12
 -1.00000000E+00 -1.06319324E-07 -1.22464680E-16 -1.06319324E-07  1.00000000E+00
  0.00000000E+00  1.22464680E-16  1.30203620E-23 -1.00000000E+00  0.00000000E+00
  5.39921750E-07  0.00000000E+00
Number of contracted shells                I               18
Number of primitive shells                 I               45
Pure/Cartesian d shells                    I                1
Pure/Cartesian f shells                    I                0
Highest angular momentum                   I                2
Largest degree of contraction              I                6
Shell types                                I   N=          18
           0          -1          -1           2           0          -1
          -1           2           0          -1          -1           2
           0           0           0           0           0           0
Number of primitives per shell             I   N=          18
           6           3           1           1           6           3
           1           1           6           3           1           1
           3           1           3           1           3           1
Shell to atom map                          I   N=          18
           1           1           1           1           2           2
           2           2           3           3           3           3
           4           4           5           5           6           6
Primitive exponents                        R   N=          45
  3.04752488E+03  4.57369518E+02  1.03948685E+02  2.92101553E+01  9.28666296E+00
  3.16392696E+00  7.86827235E+00  1.88128854E+00  5.44249258E-01  1.68714478E-01
  8.00000000E-01  3.04752488E+03  4.57369518E+02  1.03948685E+02  2.92101553E+01
  9.28666296E+00  3.16392696E+00  7.86827235E+00  1.88128854E+00  5.44249258E-01
  1.68714478E-01  8.00000000E-01  3.04752488E+03  4.57369518E+02  1.03948685E+02
  2.92101553E+01  9.28666296E+00  3.16392696E+00  7.86827235E+00  1.88128854E+00
  5.44249258E-01  1.68714478E-01  8.00000000E-01  1.87311370E+01  2.82539436E+00
  6.40121692E-01  1.61277759E-01  1.87311370E+01  2.82539436E+00  6.40121692E-01
  1.61277759E-01  1.87311370E+01  2.82539436E+00  6.40121692E-01  1.61277759E-01
Contraction coefficients                   R   N=          45
  1.83473713E-03  1.40373228E-02  6.88426223E-02  2.32184443E-01  4.67941348E-01
  3.62311985E-01 -1.19332420E-01 -1.60854152E-01  1.14345644E+00  1.00000000E+00
  1.00000000E+00  1.83473713E-03  1.40373228E-02  6.88426223E-02  2.32184443E-01
  4.67941348E-01  3.62311985E-01 -1.19332420E-01 -1.60854152E-01  1.14345644E+00
  1.00000000E+00  1.00000000E+00  1.83473713E-03  1.40373228E-02  6.88426223E-02
  2.32184443E-01  4.67941348E-01  3.62311985E-01 -1.19332420E-01 -1.60854152E-01
  1.14345644E+00  1.00000000E+00  1.00000000E+00  3.34946043E-02  2.34726953E-01
  8.13757326E-01  1.00000000E+00  3.34946043E-02  2.34726953E-01  8.13757326E-01
  1.00000000E+00  3.34946043E-02  2.34726953E-01  8.13757326E-01  1.00000000E+00
P(S=P) Contraction coefficients            R   N=          45
  0.00000000E+00  0.00000000E+00  0.00000000E+00  0.00000000E+00  0.00000000E+00
  0.00000000E+00  6.89990666E-02  3.16423961E-01  7.44308291E-01  1.00000000E+00
  0.00000000E+00  0.00000000E+00  0.00000000E+00  0.00000000E+00  0.00000000E+00
  0.00000000E+00  0.00000000E+00  6.89990666E-02  3.16423961E-01  7.44308291E-01
  1.00000000E+00  0.00000000E+00  0.00000000E+00  0.00000000E+00  0.00000000E+00
  0.00000000E+00  0.00000000E+00  0.00000000E+00  6.89990666E-02  3.16423961E-01
  7.44308291E-01  1.00000000E+00  0.00000000E+00  0.00000000E+00  0.00000000E+00
  0.00000000E+00  0.00000000E+00  0.00000000E+00  0.00000000E+00  0.00000000E+00
  0.00000000E+00  0.00000000E+00  0.00000000E+00  0.00000000E+00  0.00000000E+00
Coordinates of each shell                  R   N=          54
 -1.33657829E-18  1.48633520E+00  4.83815560E-24 -1.33657829E-18  1.48633520E+00
  4.83815560E-24 -1.33657829E-18  1.48633520E+00  4.83815560E-24 -1.33657829E-18
  1.48633520E+00  4.83815560E-24 -1.28720404E+00 -7.43167599E-01  4.83815561E-24
 -1.28720404E+00 -7.43167599E-01  4.83815561E-24 -1.28720404E+00 -7.43167599E-01
  4.83815561E-24 -1.28720404E+00 -7.43167599E-01  4.83815561E-24  1.28720404E+00
 -7.43167599E-01  4.83815555E-24  1.28720404E+00 -7.43167599E-01  4.83815555E-24
  1.28720404E+00 -7.43167599E-01  4.83815555E-24  1.28720404E+00 -7.43167599E-01
  4.83815555E-24 -3.17909994E-18  3.53532177E+00  1.15077923E-23 -3.17909994E-18
  3.53532177E+00  1.15077923E-23 -3.06167846E+00 -1.76766089E+00  1.15077924E-23
 -3.06167846E+00 -1.76766089E+00  1.15077924E-23  3.06167846E+00 -1.76766089E+00
  1.15077922E-23  3.06167846E+00 -1.76766089E+00  1.15077922E-23
Num ILSW                                   I              100
ILSW                                       I   N=         100
           0           1           0           0           2           0
           0           0           3           0        4336          -1
           5           0           0           0           0           0
           0           0           1           0           0           0
           1           0           0           0           0           0
           0           0      100000           0          -1           0
           0           0           0           0           0           0
           0           0           0           1           0           0
           0 -2000000000           1           0           0           0
           0           0           4          52           0           0
           0           0          55           0           0           0
           0           0           0           0           0           1
           0           0           0           0           0           0
           0           0           0           0           0           0
           0           0           0           0           0           0
           0           0           0           0           0           0
           0           0           0           0
Num RLSW                                   I               52
RLSW                                       R   N=          52
  1.00000000E+00  1.00000000E+00  1.00000000E+00  1.00000000E+00  5.40000000E-01
  0.00000000E+00  0.00000000E+00  1.00000000E+00  0.00000000E+00  0.00000000E+00
  0.00000000E+00  0.00000000E+00  1.00000000E+00  0.00000000E+00  0.00000000E+00
  0.00000000E+00  0.00000000E+00  1.00000000E+00  0.00000000E+00  0.00000000E+00
  0.00000000E+00  0.00000000E+00  1.00000000E+00  0.00000000E+00  0.00000000E+00
  0.00000000E+00  0.00000000E+00  1.00000000E+00  0.00000000E+00  0.00000000E+00
  0.00000000E+00  0.00000000E+00  1.00000000E+00  0.00000000E+00  0.00000000E+00
  0.00000000E+00  0.00000000E+00  0.00000000E+00  1.00000000E+00  1.00000000E+00
  0.00000000E+00  1.00000000E+00  0.00000000E+00  0.00000000E+00  0.00000000E+00
  0.00000000E+00  0.00000000E+00  0.00000000E+00  0.00000000E+00  0.00000000E+00
  0.00000000E+00  0.00000000E+00
MxBond                                     I                3
NBond                                      I   N=           6
           3           3           3           1           1           1
IBond                                      I   N=          18
           2           3           4           1           3           5
           1           2           6           1           0           0
           2           0           0           3           0           0
RBond                                      R   N=          18
  2.00000000E+00  2.00000000E+00  1.00000000E+00  2.00000000E+00  2.00000000E+00
  1.00000000E+00  2.00000000E+00  2.00000000E+00  1.00000000E+00  1.00000000E+00
  0.00000000E+00  0.00000000E+00  1.00000000E+00  0.00000000E+00  0.00000000E+00
  1.00000000E+00  0.00000000E+00  0.00000000E+00
Virial Ratio                               R      2.009039723992900E+00
SCF Energy                                 R     -1.156801154815555E+02
Total Energy                               R     -1.156801154815555E+02
RMS Density                                R      7.208687570480370E-09
Job Status                                 I                1
Nuclear derivative order                   I                0
External E-field                           R   N=          35
  0.00000000E+00  0.00000000E+00  0.00000000E+00  0.00000000E+00  0.00000000E+00
  0.00000000E+00  0.00000000E+00  0.00000000E+00  0.00000000E+00  0.00000000E+00
  0.00000000E+00  0.00000000E+00  0.00000000E+00  0.00000000E+00  0.00000000E+00
  0.00000000E+00  0.00000000E+00  0.00000000E+00  0.00000000E+00  0.00000000E+00
  0.00000000E+00  0.00000000E+00  0.00000000E+00  0.00000000E+00  0.00000000E+00
  0.00000000E+00  0.00000000E+00  0.00000000E+00  0.00000000E+00  0.00000000E+00
  0.00000000E+00  0.00000000E+00  0.00000000E+00  0.00000000E+00  0.00000000E+00
IOpCl                                      I                0
IROHF                                      I                0
Alpha Orbital Energies                     R   N=          51
 -1.08883416E+01 -1.08869158E+01 -1.08869158E+01 -1.32101263E+00 -9.40092305E-01
 -9.40092305E-01 -8.71932036E-01 -7.26780009E-01 -6.95763205E-01 -6.95763205E-01
 -2.43324874E-01 -2.43324874E-01 -5.66326837E-02 -4.79968983E-02 -4.79968983E-02
 -2.11127457E-02  1.06450852E-01  1.06450852E-01  2.50237126E-01  2.96624780E-01
  3.54133031E-01  3.54133031E-01  4.11430694E-01  4.11430694E-01  5.06993754E-01
  5.20983232E-01  6.32927356E-01  6.32927356E-01  7.51200102E-01  7.74349775E-01
  7.74349775E-01  1.06594527E+00  1.06594527E+00  1.08422057E+00  1.24024090E+00
  1.24024090E+00  1.31336682E+00  1.62738269E+00  1.62738269E+00  1.89792822E+00
  1.94489751E+00  2.06436477E+00  2.06436477E+00  2.10292261E+00  2.10292261E+00
  2.55048603E+00  2.55048603E+00  2.60314466E+00  3.83769606E+00  4.06875475E+00
  4.06875475E+00
Alpha MO coefficients                      R   N=        2601
  5.73535099E-01  2.35653678E-02  0.00000000E+00 -5.28352237E-04  0.00000000E+00
 -2.06042310E-03  0.00000000E+00  9.51978382E-04  0.00000000E+00 -4.66677191E-03
 -4.39199535E-03 -4.41461238E-03  0.00000000E+00  0.00000000E+00  0.00000000E+00
  5.73535099E-01  2.35653678E-02  4.57566460E-04  2.64176119E-04  0.00000000E+00
 -2.06042310E-03 -8.24437462E-04 -4.75989191E-04  0.00000000E+00 -4.46068949E-03
 -4.59807777E-03 -4.41461238E-03  1.37388279E-04  0.00000000E+00  0.00000000E+00
  5.73535099E-01  2.35653678E-02 -4.57566460E-04  2.64176119E-04  0.00000000E+00
 -2.06042310E-03  8.24437462E-04 -4.75989191E-04  0.00000000E+00 -4.46068949E-03
 -4.59807777E-03 -4.41461238E-03 -1.37388279E-04  0.00000000E+00  0.00000000E+00
 -3.22112359E-04  9.26096971E-06 -3.22112359E-04  9.26096972E-06 -3.22112359E-04
  9.26096972E-06  0.00000000E+00  0.00000000E+00  1.55765188E-04  0.00000000E+00
  0.00000000E+00  0.00000000E+00 -2.09439444E-03  0.00000000E+00  0.00000000E+00
  0.00000000E+00  0.00000000E+00  0.00000000E+00 -3.09398318E-04  0.00000000E+00
  0.00000000E+00  7.02951479E-01  2.95305218E-02  1.28359657E-03  6.51153753E-04
  0.00000000E+00 -1.38353186E-02 -5.05769120E-03 -1.71086018E-03  0.00000000E+00
 -4.36209796E-03 -5.07230010E-03 -5.12530652E-03  4.00803821E-04  0.00000000E+00
  0.00000000E+00 -7.02951479E-01 -2.95305218E-02  1.28359657E-03 -6.51153753E-04
  0.00000000E+00  1.38353186E-02 -5.05769120E-03  1.71086018E-03  0.00000000E+00
  4.36209796E-03  5.07230010E-03  5.12530652E-03  4.00803821E-04  0.00000000E+00
  0.00000000E+00  0.00000000E+00  0.00000000E+00 -3.76624727E-04 -7.01541071E-05
  3.76624727E-04  7.01541071E-05  8.11698451E-01  3.40989094E-02  0.00000000E+00
 -1.65954037E-03  0.00000000E+00 -1.59756498E-02  0.00000000E+00  6.04545678E-03
  0.00000000E+00 -5.99907624E-03 -4.89482827E-03 -5.91819420E-03  0.00000000E+00
  0.00000000E+00  0.00000000E+00 -4.05849226E-01 -1.70494547E-02 -6.51153753E-04
 -5.31708983E-04  0.00000000E+00  7.98782491E-03  1.71086018E-03  3.08216003E-03
  0.00000000E+00  2.78640523E-03  2.66054702E-03  2.95909710E-03 -4.10035396E-04
  0.00000000E+00  0.00000000E+00 -4.05849226E-01 -1.70494547E-02  6.51153753E-04
 -5.31708983E-04  0.00000000E+00  7.98782491E-03 -1.71086018E-03  3.08216003E-03
  0.00000000E+00  2.78640523E-03  2.66054702E-03  2.95909710E-03  4.10035396E-04
  0.00000000E+00  0.00000000E+00 -4.34888775E-04 -8.10069853E-05  2.17444387E-04
  4.05034926E-05  2.17444387E-04  4.05034926E-05 -1.31196996E-01  2.61783000E-01
  0.00000000E+00 -1.71331811E-01  0.00000000E+00  1.35248819E-01  0.00000000E+00
 -3.58059580E-04  0.00000000E+00 -1.34756058E-02  1.73238630E-02 -1.05481272E-02
  0.00000000E+00  0.00000000E+00  0.00000000E+00 -1.31196996E-01  2.61783000E-01
  1.48377701E-01  8.56659054E-02  0.00000000E+00  1.35248819E-01  3.10088693E-04
  1.79029790E-04  0.00000000E+00  9.62399582E-03 -5.77573857E-03 -1.05481272E-02
  1.53997344E-02  0.00000000E+00  0.00000000E+00 -1.31196996E-01  2.61783000E-01
 -1.48377701E-01  8.56659054E-02  0.00000000E+00  1.35248819E-01 -3.10088693E-04
  1.79029790E-04  0.00000000E+00  9.62399582E-03 -5.77573857E-03 -1.05481272E-02
 -1.53997344E-02  0.00000000E+00  0.00000000E+00  2.71772687E-02 -1.34499157E-02
  2.71772687E-02 -1.34499157E-02  2.71772687E-02 -1.34499157E-02  0.00000000E+00
  0.00000000E+00 -1.80517485E-01  0.00000000E+00  0.00000000E+00  0.00000000E+00
 -4.06027010E-02  0.00000000E+00  0.00000000E+00  0.00000000E+00  0.00000000E+00
  0.00000000E+00  1.62429481E-02  0.00000000E+00  0.00000000E+00 -1.27843330E-01
  2.68880501E-01 -1.67152790E-01  7.71611030E-03  0.00000000E+00  2.89330807E-01
 -4.72274447E-02 -3.82479756E-03  0.00000000E+00  2.29416064E-03  4.34213971E-03
 -5.11477498E-03  1.41949690E-02  0.00000000E+00  0.00000000E+00  1.27843330E-01
 -2.68880501E-01 -1.67152790E-01 -7.71611030E-03  0.00000000E+00 -2.89330807E-01
 -4.72274447E-02  3.82479756E-03  0.00000000E+00 -2.29416064E-03 -4.34213971E-03
  5.11477498E-03  1.41949690E-02  0.00000000E+00  0.00000000E+00  0.00000000E+00
  0.00000000E+00  1.73006316E-01  4.98404991E-02 -1.73006316E-01 -4.98404991E-02
 -1.47620762E-01  3.10476459E-01  0.00000000E+00  1.62697891E-01  0.00000000E+00
  3.34090439E-01  0.00000000E+00  4.94356926E-02  0.00000000E+00 -7.87053332E-03
  1.55334729E-02 -5.90603343E-03  0.00000000E+00  0.00000000E+00  0.00000000E+00
  7.38103809E-02 -1.55238229E-01 -7.71611030E-03  1.76062586E-01  0.00000000E+00
 -1.67045219E-01  3.82479756E-03  4.28109489E-02  0.00000000E+00 -1.53913399E-02
  1.15598701E-02  2.95301671E-03  1.18240127E-03  0.00000000E+00  0.00000000E+00
  7.38103809E-02 -1.55238229E-01  7.71611030E-03  1.76062586E-01  0.00000000E+00
 -1.67045219E-01 -3.82479756E-03  4.28109489E-02  0.00000000E+00 -1.53913399E-02
  1.15598701E-02  2.95301671E-03 -1.18240127E-03  0.00000000E+00  0.00000000E+00
  1.99770487E-01  5.75508511E-02 -9.98852433E-02 -2.87754256E-02 -9.98852433E-02
 -2.87754256E-02 -3.49301704E-02  6.81057622E-02  0.00000000E+00  2.98425313E-01
  0.00000000E+00  1.24406899E-01  0.00000000E+00  7.70675977E-02  0.00000000E+00
  6.67585636E-03 -7.38720261E-04  2.02085772E-03  0.00000000E+00  0.00000000E+00
  0.00000000E+00 -3.49301704E-02  6.81057622E-02 -2.58443902E-01 -1.49212656E-01
  0.00000000E+00  1.24406899E-01 -6.67424974E-02 -3.85337989E-02  0.00000000E+00
  1.11492389E-03  4.82221221E-03  2.02085772E-03 -3.70728831E-03  0.00000000E+00
  0.00000000E+00 -3.49301704E-02  6.81057622E-02  2.58443902E-01 -1.49212656E-01
  0.00000000E+00  1.24406899E-01  6.67424974E-02 -3.85337989E-02  0.00000000E+00
  1.11492389E-03  4.82221221E-03  2.02085772E-03  3.70728831E-03  0.00000000E+00
  0.00000000E+00  1.72171460E-01  7.32710342E-02  1.72171460E-01  7.32710342E-02
  1.72171460E-01  7.32710342E-02  0.00000000E+00  0.00000000E+00  0.00000000E+00
  0.00000000E+00  3.46083756E-01  0.00000000E+00  0.00000000E+00  0.00000000E+00
  1.63064412E-01  0.00000000E+00  0.00000000E+00  0.00000000E+00  0.00000000E+00
  0.00000000E+00 -3.46604675E-02  0.00000000E+00  0.00000000E+00  0.00000000E+00
  0.00000000E+00  3.46083756E-01  0.00000000E+00  0.00000000E+00  0.00000000E+00
  1.63064412E-01  0.00000000E+00  0.00000000E+00  0.00000000E+00  0.00000000E+00
  3.00168453E-02  1.73302337E-02  0.00000000E+00  0.00000000E+00  0.00000000E+00
  0.00000000E+00  3.46083756E-01  0.00000000E+00  0.00000000E+00  0.00000000E+00
  1.63064412E-01  0.00000000E+00  0.00000000E+00  0.00000000E+00  0.00000000E+00
 -3.00168453E-02  1.73302337E-02  0.00000000E+00  0.00000000E+00  0.00000000E+00
  0.00000000E+00  0.00000000E+00  0.00000000E+00  0.00000000E+00  0.00000000E+00
  4.44539005E-01  0.00000000E+00  0.00000000E+00  0.00000000E+00  1.88172749E-01
  0.00000000E+00  0.00000000E+00  0.00000000E+00  0.00000000E+00  0.00000000E+00
 -2.58952467E-02  0.00000000E+00  0.00000000E+00  1.36949435E-02 -3.54161743E-02
 -9.49239624E-02 -3.11459090E-01  0.00000000E+00 -4.65450394E-02 -4.59909234E-02
 -1.35194459E-01  0.00000000E+00  2.01743217E-02 -1.64043270E-02  3.91223933E-05
  1.06834020E-02  0.00000000E+00  0.00000000E+00 -1.36949435E-02  3.54161743E-02
 -9.49239624E-02  3.11459090E-01  0.00000000E+00  4.65450394E-02 -4.59909234E-02
  1.35194459E-01  0.00000000E+00 -2.01743217E-02  1.64043270E-02 -3.91223933E-05
  1.06834020E-02  0.00000000E+00  0.00000000E+00  0.00000000E+00  0.00000000E+00
  1.46549713E-01  9.50717183E-02 -1.46549713E-01 -9.50717183E-02  1.58135586E-02
 -4.08950756E-02  0.00000000E+00  2.74744952E-01  0.00000000E+00 -5.37455821E-02
  0.00000000E+00  1.24045481E-01  0.00000000E+00 -1.76348364E-02  2.19880514E-02
  4.51746486E-05  0.00000000E+00  0.00000000E+00  0.00000000E+00 -7.90677931E-03
  2.04475378E-02  3.11459090E-01 -2.64718016E-01  0.00000000E+00  2.68727910E-02
  1.35194459E-01 -1.10118191E-01  0.00000000E+00  1.07782914E-02 -1.29548989E-02
 -2.25873243E-05 -2.11186927E-02  0.00000000E+00  0.00000000E+00 -7.90677931E-03
  2.04475378E-02 -3.11459090E-01 -2.64718016E-01  0.00000000E+00  2.68727910E-02
 -1.35194459E-01 -1.10118191E-01  0.00000000E+00  1.07782914E-02 -1.29548989E-02
 -2.25873243E-05  2.11186927E-02  0.00000000E+00  0.00000000E+00  1.69221033E-01
  1.09779364E-01 -8.46105163E-02 -5.48896821E-02 -8.46105163E-02 -5.48896821E-02
  0.00000000E+00  0.00000000E+00  0.00000000E+00  0.00000000E+00  0.00000000E+00
  0.00000000E+00  0.00000000E+00  0.00000000E+00  0.00000000E+00  0.00000000E+00
  0.00000000E+00  0.00000000E+00  0.00000000E+00 -3.08714357E-02  0.00000000E+00
  0.00000000E+00  0.00000000E+00  0.00000000E+00  0.00000000E+00  4.53065085E-01
  0.00000000E+00  0.00000000E+00  0.00000000E+00  5.63761811E-01  0.00000000E+00
  0.00000000E+00  0.00000000E+00  0.00000000E+00 -1.64016156E-02  8.35415455E-03
  0.00000000E+00  0.00000000E+00  0.00000000E+00  0.00000000E+00 -4.53065085E-01
  0.00000000E+00  0.00000000E+00  0.00000000E+00 -5.63761811E-01  0.00000000E+00
  0.00000000E+00  0.00000000E+00  0.00000000E+00 -1.64016156E-02 -8.35415455E-03
  0.00000000E+00  0.00000000E+00  0.00000000E+00  0.00000000E+00  0.00000000E+00
  0.00000000E+00  0.00000000E+00  0.00000000E+00  0.00000000E+00  0.00000000E+00
  5.23154497E-01  0.00000000E+00  0.00000000E+00  0.00000000E+00  6.50976067E-01
  0.00000000E+00  0.00000000E+00  0.00000000E+00  0.00000000E+00  0.00000000E+00
  1.15783422E-02  0.00000000E+00  0.00000000E+00  0.00000000E+00  0.00000000E+00
 -2.61577249E-01  0.00000000E+00  0.00000000E+00  0.00000000E+00 -3.25488033E-01
  0.00000000E+00  0.00000000E+00  0.00000000E+00  0.00000000E+00 -8.35415455E-03
  2.60481624E-02  0.00000000E+00  0.00000000E+00  0.00000000E+00  0.00000000E+00
 -2.61577249E-01  0.00000000E+00  0.00000000E+00  0.00000000E+00 -3.25488033E-01
  0.00000000E+00  0.00000000E+00  0.00000000E+00  0.00000000E+00  8.35415455E-03
  2.60481624E-02  0.00000000E+00  0.00000000E+00  0.00000000E+00  0.00000000E+00
  0.00000000E+00  0.00000000E+00  4.31629565E-02  1.68974347E-02  0.00000000E+00
 -2.28340243E-01  0.00000000E+00 -9.02454399E-01  0.00000000E+00 -4.20343639E-01
  0.00000000E+00 -2.25675800E-02  4.48881013E-02 -1.28780405E-02  0.00000000E+00
  0.00000000E+00  0.00000000E+00  4.31629565E-02  1.68974347E-02  1.97748451E-01
  1.14170121E-01  0.00000000E+00 -9.02454399E-01  3.64028270E-01  2.10171820E-01
  0.00000000E+00  2.80241810E-02 -5.70365965E-03 -1.28780405E-02  3.37278406E-02
  0.00000000E+00  0.00000000E+00  4.31629565E-02  1.68974347E-02 -1.97748451E-01
  1.14170121E-01  0.00000000E+00 -9.02454399E-01 -3.64028270E-01  2.10171820E-01
  0.00000000E+00  2.80241810E-02 -5.70365965E-03 -1.28780405E-02 -3.37278406E-02
  0.00000000E+00  0.00000000E+00  1.36287393E-01  1.07179094E+00  1.36287393E-01
  1.07179094E+00  1.36287393E-01  1.07179094E+00 -1.34867365E-01  2.69007837E-01
  0.00000000E+00  6.62297477E-02  0.00000000E+00  1.78012444E+00  0.00000000E+00
  2.02468517E-01  0.00000000E+00 -1.03584993E-02 -1.77596577E-02  1.65355308E-02
  0.00000000E+00  0.00000000E+00  0.00000000E+00  6.74336824E-02 -1.34503918E-01
  8.29994005E-02 -7.75294310E-02  0.00000000E+00 -8.90062221E-01  2.68047081E-01
 -2.61802646E-01  0.00000000E+00 -8.02053977E-03  2.20796182E-02 -8.26776538E-03
  1.25004388E-02  0.00000000E+00  0.00000000E+00  6.74336824E-02 -1.34503918E-01
 -8.29994005E-02 -7.75294310E-02  0.00000000E+00 -8.90062221E-01 -2.68047081E-01
 -2.61802646E-01  0.00000000E+00 -8.02053977E-03  2.20796182E-02 -8.26776538E-03
 -1.25004388E-02  0.00000000E+00  0.00000000E+00 -1.32799489E-01 -1.34151513E+00
  6.63997444E-02  6.70757565E-01  6.63997444E-02  6.70757565E-01  0.00000000E+00
  0.00000000E+00  1.25449157E-01  0.00000000E+00  0.00000000E+00  0.00000000E+00
  4.16559701E-01  0.00000000E+00  0.00000000E+00  0.00000000E+00  0.00000000E+00
  0.00000000E+00  2.45954660E-02  0.00000000E+00  0.00000000E+00 -1.16798564E-01
  2.32967621E-01 -1.83100215E-02 -8.29994005E-02  0.00000000E+00  1.54163299E+00
 -4.77114626E-02 -2.68047081E-01  0.00000000E+00 -2.30012167E-02 -1.34982155E-03
  1.43201897E-02  2.94407092E-03  0.00000000E+00  0.00000000E+00  1.16798564E-01
 -2.32967621E-01 -1.83100215E-02  8.29994005E-02  0.00000000E+00 -1.54163299E+00
 -4.77114626E-02  2.68047081E-01  0.00000000E+00  2.30012167E-02  1.34982155E-03
 -1.43201897E-02  2.94407092E-03  0.00000000E+00  0.00000000E+00  0.00000000E+00
  0.00000000E+00 -1.15007731E-01 -1.16178618E+00  1.15007731E-01  1.16178618E+00
  0.00000000E+00  0.00000000E+00  3.79725727E-01  0.00000000E+00  0.00000000E+00
  0.00000000E+00  1.05322134E+00  0.00000000E+00  0.00000000E+00  0.00000000E+00
  0.00000000E+00  0.00000000E+00  2.94869034E-02  0.00000000E+00  0.00000000E+00
  2.18816981E-14 -3.63455677E-14 -1.89862863E-01  3.28852126E-01  0.00000000E+00
 -1.93396071E-13 -5.26610672E-01  9.12116440E-01  0.00000000E+00  2.21151775E-02
 -2.21151775E-02 -1.26646125E-14 -1.47434517E-02  0.00000000E+00  0.00000000E+00
 -2.18816981E-14  3.63455677E-14 -1.89862863E-01 -3.28852126E-01  0.00000000E+00
  1.93396071E-13 -5.26610672E-01 -9.12116440E-01  0.00000000E+00 -2.21151775E-02
  2.21151775E-02  1.26646125E-14 -1.47434517E-02  0.00000000E+00  0.00000000E+00
  0.00000000E+00  0.00000000E+00  2.58227562E-14  3.56538528E-13 -2.58227562E-14
 -3.56538528E-13 -8.28213243E-02  1.55994212E-02  0.00000000E+00 -3.40006100E-01
  0.00000000E+00  3.77926864E+00  0.00000000E+00 -3.57380833E+00  0.00000000E+00
 -1.24766856E-03  5.52224321E-03 -9.26293051E-03  0.00000000E+00  0.00000000E+00
  0.00000000E+00  4.14106622E-02 -7.79971061E-03 -2.12359066E-01  2.78105916E-02
  0.00000000E+00 -1.88963432E+00 -9.73403105E-01 -1.88782470E+00  0.00000000E+00
 -2.87064081E-02  2.65691207E-02  4.63146525E-03  1.61685390E-02  0.00000000E+00
  0.00000000E+00  4.14106622E-02 -7.79971061E-03  2.12359066E-01  2.78105916E-02
  0.00000000E+00 -1.88963432E+00  9.73403105E-01 -1.88782470E+00  0.00000000E+00
 -2.87064081E-02  2.65691207E-02  4.63146525E-03 -1.61685390E-02  0.00000000E+00
  0.00000000E+00 -3.37623100E-02  1.94380752E+00  1.68811550E-02 -9.71903762E-01
  1.68811550E-02 -9.71903762E-01  0.00000000E+00  0.00000000E+00 -1.50416156E-01
  0.00000000E+00  0.00000000E+00  0.00000000E+00  1.32583015E+00  0.00000000E+00
  0.00000000E+00  0.00000000E+00  0.00000000E+00  0.00000000E+00  4.12482518E-02
  0.00000000E+00  0.00000000E+00 -7.17253708E-02  1.35094951E-02  2.17400536E-01
  2.12359066E-01  0.00000000E+00  3.27294265E+00  3.01181379E+00  9.73403105E-01
  0.00000000E+00 -1.21514204E-02  1.58533106E-02 -8.02193313E-03  1.32435207E-02
  0.00000000E+00  0.00000000E+00  7.17253708E-02 -1.35094951E-02  2.17400536E-01
 -2.12359066E-01  0.00000000E+00 -3.27294265E+00  3.01181379E+00 -9.73403105E-01
  0.00000000E+00  1.21514204E-02 -1.58533106E-02  8.02193313E-03  1.32435207E-02
  0.00000000E+00  0.00000000E+00  0.00000000E+00  0.00000000E+00 -2.92390182E-02
  1.68338670E+00  2.92390182E-02 -1.68338670E+00  1.65749350E-02  6.45526870E-01
  0.00000000E+00 -1.58819846E-02  0.00000000E+00 -2.98847575E-01  0.00000000E+00
  2.92876033E-01  0.00000000E+00  1.09603094E-02  1.24049611E-01 -9.99673309E-03
  0.00000000E+00  0.00000000E+00  0.00000000E+00  1.65749350E-02  6.45526870E-01
  1.37542021E-02  7.94099229E-03  0.00000000E+00 -2.98847575E-01 -2.53638085E-01
 -1.46438016E-01  0.00000000E+00  9.57772860E-02  3.92326349E-02 -9.99673309E-03
  5.65446510E-02  0.00000000E+00  0.00000000E+00  1.65749350E-02  6.45526870E-01
 -1.37542021E-02  7.94099229E-03  0.00000000E+00 -2.98847575E-01  2.53638085E-01
 -1.46438016E-01  0.00000000E+00  9.57772860E-02  3.92326349E-02 -9.99673309E-03
 -5.65446510E-02  0.00000000E+00  0.00000000E+00  3.24617776E-01 -5.38681208E-01