 Entering Gaussian System, Link 0=g16
 Initial command:
 /opt/software/g16/l1.exe "/tmp/C3H3+1-25059.tmp/Gau-1767.inp" -scrdir="/tmp/C3H3+1-25059.tmp/"
 Entering Link 1 = /opt/software/g16/l1.exe PID=      1768.
  
 Copyright (c) 1988-2017, Gaussian, Inc.  All Rights Reserved.
  
 This is part of the Gaussian(R) 16 program.  It is based on
 the Gaussian(R) 09 system (copyright 2009, Gaussian, Inc.),
 the Gaussian(R) 03 system (copyright 2003, Gaussian, Inc.),
 the Gaussian(R) 98 system (copyright 1998, Gaussian, Inc.),
 the Gaussian(R) 94 system (copyright 1995, Gaussian, Inc.),
 the Gaussian 92(TM) system (copyright 1992, Gaussian, Inc.),
 the Gaussian 90(TM) system (copyright 1990, Gaussian, Inc.),
 the Gaussian 88(TM) system (copyright 1988, Gaussian, Inc.),
 the Gaussian 86(TM) system (copyright 1986, Carnegie Mellon
 University), and the Gaussian 82(TM) system (copyright 1983,
 Carnegie Mellon University). Gaussian is a federally registered
 trademark of Gaussian, Inc.
  
 This software contains proprietary and confidential information,
 including trade secrets, belonging to Gaussian, Inc.
  
 This software is provided under written license and may be
 used, copied, transmitted, or stored only in accord with that
 written license.
  
 The following legend is applicable only to US Government
 contracts under FAR:
  
                    RESTRICTED RIGHTS LEGEND
  
 Use, reproduction and disclosure by the US Government is
 subject to restrictions as set forth in subparagraphs (a)
 and (c) of the Commercial Computer Software - Restricted
 Rights clause in FAR 52.227-19.
  
 Gaussian, Inc.
 340 Quinnipiac St., Bldg. 40, Wallingford CT 06492
  
  
 ---------------------------------------------------------------
 Warning -- This program may not be used in any manner that
 competes with the business of Gaussian, Inc. or will provide
 assistance to any competitor of Gaussian, Inc.  The licensee
 of this program is prohibited from giving any competitor of
 Gaussian, Inc. access to this program.  By using this program,
 the user acknowledges that Gaussian, Inc. is engaged in the
 business of creating and licensing software in the field of
 computational chemistry and represents and warrants to the
 licensee that it is not a competitor of Gaussian, Inc. and that
 it will not use this program in any manner prohibited above.
 ---------------------------------------------------------------
  

 Cite this work as:
 Gaussian 16, Revision B.01,
 M. J. Frisch, G. W. Trucks, H. B. Schlegel, G. E. Scuseria, 
 M. A. Robb, J. R. Cheeseman, G. Scalmani, V. Barone, 
 G. A. Petersson, H. Nakatsuji, X. Li, M. Caricato, A. V. Marenich, 
 J. Bloino, B. G. Janesko, R. Gomperts, B. Mennucci, H. P. Hratchian, 
 J. V. Ortiz, A. F. Izmaylov, J. L. Sonnenberg, D. Williams-Young, 
 F. Ding, F. Lipparini, F. Egidi, J. Goings, B. Peng, A. Petrone, 
 T. Henderson, D. Ranasinghe, V. G. Zakrzewski, J. Gao, N. Rega, 
 G. Zheng, W. Liang, M. Hada, M. Ehara, K. Toyota, R. Fukuda, 
 J. Hasegawa, M. Ishida, T. Nakajima, Y. Honda, O. Kitao, H. Nakai, 
 T. Vreven, K. Throssell, J. A. Montgomery, Jr., J. E. Peralta, 
 F. Ogliaro, M. J. Bearpark, J. J. Heyd, E. N. Brothers, K. N. Kudin, 
 V. N. Staroverov, T. A. Keith, R. Kobayashi, J. Normand, 
 K. Raghavachari, A. P. Rendell, J. C. Burant, S. S. Iyengar, 
 J. Tomasi, M. Cossi, J. M. Millam, M. Klene, C. Adamo, R. Cammi, 
 J. W. Ochterski, R. L. Martin, K. Morokuma, O. Farkas, 
 J. B. Foresman, and D. J. Fox, Gaussian, Inc., Wallingford CT, 2016.
 
 ******************************************
 Gaussian 16:  ES64L-G16RevB.01 20-Dec-2017
                10-Apr-2020 
 ******************************************
 %nproc=32
 Will use up to   32 processors via shared memory.
 -----------------------------------------------
 # M062X/6-31G* fchk=All Pop=NBO6Read SYMM=loose
 -----------------------------------------------
 1/38=1,163=2,172=1/1;
 2/12=2,17=4,18=3,40=1/2;
 3/5=1,6=6,7=1,11=2,25=1,30=1,74=-55/1,2,3;
 4//1;
 5/5=2,38=5/2;
 6/7=2,8=2,9=2,10=2,28=1,40=2,113=1,114=1,124=2103/1,12;
 99/5=1,9=1/99;
 ------
 C3H3+1
 ------
 Symbolic Z-matrix:
 Charge =  1 Multiplicity = 1
 6                     0.        0.78654   0. 
 6                     0.68116  -0.39327   0. 
 6                    -0.68116  -0.39327   0. 
 1                     0.        1.87081   0. 
 1                     1.62017  -0.93541   0. 
 1                    -1.62017  -0.93541   0. 
 
                          Input orientation:                          
 ---------------------------------------------------------------------
 Center     Atomic      Atomic             Coordinates (Angstroms)
 Number     Number       Type             X           Y           Z
 ---------------------------------------------------------------------
      1          6           0        0.000000    0.786535    0.000000
      2          6           0        0.681159   -0.393267    0.000000
      3          6           0       -0.681159   -0.393267    0.000000
      4          1           0        0.000000    1.870812    0.000000
      5          1           0        1.620171   -0.935406    0.000000
      6          1           0       -1.620171   -0.935406    0.000000
 ---------------------------------------------------------------------
                    Distance matrix (angstroms):
                    1          2          3          4          5
     1  C    0.000000
     2  C    1.362318   0.000000
     3  C    1.362318   1.362318   0.000000
     4  H    1.084277   2.364325   2.364325   0.000000
     5  H    2.364325   1.084278   2.364325   3.240342   0.000000
     6  H    2.364325   2.364325   1.084278   3.240342   3.240342
                    6
     6  H    0.000000
 Stoichiometry    C3H3(1+)
 Framework group  D3H[3C2(.CH)]
 Deg. of freedom     2
 Full point group                 D3H     NOp  12
 Largest Abelian subgroup         C2V     NOp   4
 Largest concise Abelian subgroup C2      NOp   2
                         Standard orientation:                         
 ---------------------------------------------------------------------
 Center     Atomic      Atomic             Coordinates (Angstroms)
 Number     Number       Type             X           Y           Z
 ---------------------------------------------------------------------
      1          6           0       -0.000000    0.786535    0.000000
      2          6           0       -0.681159   -0.393267    0.000000
      3          6           0        0.681159   -0.393267    0.000000
      4          1           0       -0.000000    1.870812    0.000000
      5          1           0       -1.620170   -0.935406    0.000000
      6          1           0        1.620170   -0.935406    0.000000
 ---------------------------------------------------------------------
 Rotational constants (GHZ):          30.7661756          30.7661756          15.3830878
 Standard basis: 6-31G(d) (6D, 7F)
 There are    23 symmetry adapted cartesian basis functions of A1  symmetry.
 There are     5 symmetry adapted cartesian basis functions of A2  symmetry.
 There are    16 symmetry adapted cartesian basis functions of B1  symmetry.
 There are     7 symmetry adapted cartesian basis functions of B2  symmetry.
 There are    23 symmetry adapted basis functions of A1  symmetry.
 There are     5 symmetry adapted basis functions of A2  symmetry.
 There are    16 symmetry adapted basis functions of B1  symmetry.
 There are     7 symmetry adapted basis functions of B2  symmetry.
    51 basis functions,    96 primitive gaussians,    51 cartesian basis functions
    10 alpha electrons       10 beta electrons
       nuclear repulsion energy        59.2835782189 Hartrees.
 NAtoms=    6 NActive=    6 NUniq=    2 SFac= 4.00D+00 NAtFMM=   60 NAOKFM=F Big=F
 Integral buffers will be    131072 words long.
 Raffenetti 2 integral format.
 Two-electron integral symmetry is turned on.
 One-electron integrals computed using PRISM.
 NBasis=    51 RedAO= T EigKep=  2.82D-03  NBF=    23     5    16     7
 NBsUse=    51 1.00D-06 EigRej= -1.00D+00 NBFU=    23     5    16     7
 ExpMin= 1.61D-01 ExpMax= 3.05D+03 ExpMxC= 4.57D+02 IAcc=3 IRadAn=         5 AccDes= 0.00D+00
 Harris functional with IExCor= 1009 and IRadAn=       5 diagonalized for initial guess.
 HarFok:  IExCor= 1009 AccDes= 0.00D+00 IRadAn=         5 IDoV= 1 UseB2=F ITyADJ=14
 ICtDFT=  3500011 ScaDFX=  1.000000  1.000000  1.000000  1.000000
 FoFCou: FMM=F IPFlag=           0 FMFlag=      100000 FMFlg1=           0
         NFxFlg=           0 DoJE=T BraDBF=F KetDBF=T FulRan=T
         wScrn=  0.000000 ICntrl=       500 IOpCl=  0 I1Cent=   200000004 NGrid=           0
         NMat0=    1 NMatS0=      1 NMatT0=    0 NMatD0=    1 NMtDS0=    0 NMtDT0=    0
 Petite list used in FoFCou.
 Initial guess orbital symmetries:
       Occupied  (A1') (E') (E') (A1') (E') (E') (A1') (A2") (E')
                 (E')
       Virtual   (E") (E") (A1') (E') (E') (A2') (E') (E') (A1')
                 (A2") (E') (E') (E") (E") (A2') (A1') (E') (E')
                 (A1') (E') (E') (A2") (E') (E') (E") (E") (A1')
                 (E') (E') (A1") (A1') (E') (E') (E") (E") (E')
                 (E') (A2') (A1') (E') (E')
 The electronic state of the initial guess is 1-A1'.
 Keep R1 ints in memory in symmetry-blocked form, NReq=28837039.
 Requested convergence on RMS density matrix=1.00D-08 within 128 cycles.
 Requested convergence on MAX density matrix=1.00D-06.
 Requested convergence on             energy=1.00D-06.
 No special actions if energy rises.
 Integral accuracy reduced to 1.0D-05 until final iterations.
 Initial convergence to 1.0D-05 achieved.  Increase integral accuracy.
 SCF Done:  E(RM062X) =  -115.680115482     A.U. after   10 cycles
            NFock= 10  Conv=0.72D-08     -V/T= 2.0090

 **********************************************************************

            Population analysis using the SCF Density.

 **********************************************************************

 Orbital symmetries:
       Occupied  (A1') (E') (E') (A1') (E') (E') (A1') (A2") (E')
                 (E')
       Virtual   (E") (E") (A1') (E') (E') (A2') (E') (E') (A1')
                 (A2") (E') (E') (E") (E") (A1') (A2') (E') (E')
                 (A1') (E') (E') (E') (E') (A2") (E") (E") (A1')
                 (E') (E') (A1") (A1') (E') (E') (E") (E") (E')
                 (E') (A2') (A1') (E') (E')
 The electronic state is 1-A1'.
 Alpha  occ. eigenvalues --  -10.88834 -10.88692 -10.88692  -1.32101  -0.94009
 Alpha  occ. eigenvalues --   -0.94009  -0.87193  -0.72678  -0.69576  -0.69576
 Alpha virt. eigenvalues --   -0.24332  -0.24332  -0.05663  -0.04800  -0.04800
 Alpha virt. eigenvalues --   -0.02111   0.10645   0.10645   0.25024   0.29662
 Alpha virt. eigenvalues --    0.35413   0.35413   0.41143   0.41143   0.50699
 Alpha virt. eigenvalues --    0.52098   0.63293   0.63293   0.75120   0.77435
 Alpha virt. eigenvalues --    0.77435   1.06595   1.06595   1.08422   1.24024
 Alpha virt. eigenvalues --    1.24024   1.31337   1.62738   1.62738   1.89793
 Alpha virt. eigenvalues --    1.94490   2.06436   2.06436   2.10292   2.10292
 Alpha virt. eigenvalues --    2.55049   2.55049   2.60314   3.83770   4.06875
 Alpha virt. eigenvalues --    4.06875
          Condensed to atoms (all electrons):
               1          2          3          4          5          6
     1  C    4.881440   0.398134   0.398134   0.348940  -0.014880  -0.014880
     2  C    0.398134   4.881440   0.398134  -0.014880   0.348940  -0.014880
     3  C    0.398134   0.398134   4.881440  -0.014880  -0.014880   0.348940
     4  H    0.348940  -0.014880  -0.014880   0.351123  -0.000262  -0.000262
     5  H   -0.014880   0.348940  -0.014880  -0.000262   0.351123  -0.000262
     6  H   -0.014880  -0.014880   0.348940  -0.000262  -0.000262   0.351123
 Mulliken charges:
               1
     1  C    0.003112
     2  C    0.003112
     3  C    0.003112
     4  H    0.330221
     5  H    0.330221
     6  H    0.330221
 Sum of Mulliken charges =   1.00000
 Mulliken charges with hydrogens summed into heavy atoms:
               1
     1  C    0.333333
     2  C    0.333333
     3  C    0.333333
 Electronic spatial extent (au):  <R**2>=            103.0904
 Charge=              1.0000 electrons
 Dipole moment (field-independent basis, Debye):
    X=             -0.0000    Y=             -0.0000    Z=              0.0000  Tot=              0.0000
 Quadrupole moment (field-independent basis, Debye-Ang):
   XX=             -9.5816   YY=             -9.5816   ZZ=            -15.5783
   XY=             -0.0000   XZ=              0.0000   YZ=              0.0000
 Traceless Quadrupole moment (field-independent basis, Debye-Ang):
   XX=              1.9989   YY=              1.9989   ZZ=             -3.9978
   XY=             -0.0000   XZ=              0.0000   YZ=              0.0000
 Octapole moment (field-independent basis, Debye-Ang**2):
  XXX=             -0.0000  YYY=              7.4626  ZZZ=             -0.0000  XYY=              0.0000
  XXY=             -7.4626  XXZ=              0.0000  XZZ=              0.0000  YZZ=              0.0000
  YYZ=              0.0000  XYZ=             -0.0000
 Hexadecapole moment (field-independent basis, Debye-Ang**3):
 XXXX=            -38.8274 YYYY=            -38.8274 ZZZZ=            -13.9671 XXXY=              0.0000
 XXXZ=              0.0000 YYYX=             -0.0000 YYYZ=              0.0000 ZZZX=              0.0000
 ZZZY=             -0.0000 XXYY=            -12.9425 XXZZ=            -11.9541 YYZZ=            -11.9541
 XXYZ=             -0.0000 YYXZ=              0.0000 ZZXY=              0.0000
 N-N= 5.928357821893D+01 E-N=-3.801268794084D+02  KE= 1.146437674662D+02
 Symmetry A1   KE= 7.502157177083D+01
 Symmetry A2   KE=-8.887546322971D-18
 Symmetry B1   KE= 3.742502370941D+01
 Symmetry B2   KE= 2.197171985910D+00
 Running external command "gaunbo6 R"
         input file       "/tmp/C3H3+1-25059.tmp/Gau-1768.EIn"
         output file      "/tmp/C3H3+1-25059.tmp/Gau-1768.EOu"
         message file     "/tmp/C3H3+1-25059.tmp/Gau-1768.EMs"
         fchk file        "/tmp/C3H3+1-25059.tmp/Gau-1768.EFC"
         mat. el file     "/tmp/C3H3+1-25059.tmp/Gau-1768.EUF"

 Writing WrtUnf unformatted file "/tmp/C3H3+1-25059.tmp/Gau-1768.EUF"
 Gaussian matrix elements                                         Version   2 NLab=11 Len12L=8 Len4L=8
 Write SHELL TO ATOM MAP                   from file     0 offset           0 length                  18 to matrix element file.
 Write SHELL TYPES                         from file     0 offset           0 length                  18 to matrix element file.
 Write NUMBER OF PRIMITIVES PER SHELL      from file     0 offset           0 length                  18 to matrix element file.
 Write PRIMITIVE EXPONENTS                 from file     0 offset           0 length                  45 to matrix element file.
 Write CONTRACTION COEFFICIENTS            from file     0 offset           0 length                  45 to matrix element file.
 Write P(S=P) CONTRACTION COEFFICIENTS     from file     0 offset           0 length                  45 to matrix element file.
 Write COORDINATES OF EACH SHELL           from file     0 offset           0 length                  54 to matrix element file.
 Write BONDS PER ATOM                      from file     0 offset           0 length                   6 to matrix element file.
 Write BONDED ATOMS                        from file     0 offset           0 length                  12 to matrix element file.
 Write BOND TYPES                          from file     0 offset           0 length                  12 to matrix element file.
 Write GAUSSIAN SCALARS                    from file   501 offset           0 to matrix element file.
 Write INTEGER ISO                         from file     0 offset           0 length                   6 to matrix element file.
 Write INTEGER SPIN                        from file     0 offset           0 length                   6 to matrix element file.
 Write REAL ZEFFECTIVE                     from file     0 offset           0 length                   6 to matrix element file.
 Write REAL GFACTOR                        from file     0 offset           0 length                   6 to matrix element file.
 Write REAL ZNUCLEAR                       from file     0 offset           0 length                   6 to matrix element file.
 Write MULLIKEN CHARGES                    from file     0 offset           0 length                   6 to matrix element file.
 Write NUCLEAR GRADIENT                    from file 10584 offset           0 length                  18 to matrix element file.
 Array NUCLEAR FORCE CONSTANTS              on  file 10585 does not exist.
 Write ELECTRIC DIPOLE MOMENT              from file     0 offset           0 length                   3 to matrix element file.
 Write NON-ADIABATIC COUPLING              from file 10810 offset           0 length                  18 to matrix element file.
 Write OVERLAP                             from file 10514 offset           0 length                1326 to matrix element file.
 Write CORE HAMILTONIAN ALPHA              from file 10515 offset           0 length                1326 to matrix element file.
 Write CORE HAMILTONIAN BETA               from file 10515 offset        1326 length                1326 to matrix element file.
 Write KINETIC ENERGY                      from file 10516 offset           0 length                1326 to matrix element file.
 Write ORTHOGONAL BASIS                    from file 10685 offset           0 length                2601 to matrix element file.
 Write DIPOLE INTEGRALS                    from file 10518 offset           0 length                3978 to matrix element file.
 Array DIP VEL INTEGRALS                    on  file 10572 does not exist.
 Array R X DEL INTEGRALS                    on  file 10572 does not exist.
 Write ALPHA ORBITAL ENERGIES              from file     0 offset           0 length                  51 to matrix element file.
 Write ALPHA MO COEFFICIENTS               from file 10524 offset           0 length                2601 to matrix element file.
 Write ALPHA DENSITY MATRIX                from file     0 offset           0 length                1326 to matrix element file.
 Write ALPHA SCF DENSITY MATRIX            from file 10528 offset           0 length                1326 to matrix element file.
 Write ALPHA FOCK MATRIX                   from file 10536 offset           0 length                1326 to matrix element file.
 Write ALPHA SCF DENSITY                   from file     0 offset           0 length                1326 to matrix element file.
 No 2e integrals to process.
 Perform NBO analysis...

 *********************************** NBO 7.0 ***********************************
             N A T U R A L   A T O M I C   O R B I T A L   A N D
          N A T U R A L   B O N D   O R B I T A L   A N A L Y S I S
 ***************************** Yang Wang (I101673) *****************************
  (c) Copyright 1996-2019 Board of Regents of the University of Wisconsin System
      on behalf of the Theoretical Chemistry Institute.  All rights reserved.

          Cite this program [NBO 7.0.4 (28-Mar-2019)] as:

          NBO 7.0.  E. D. Glendening, J. K. Badenhoop, A. E. Reed,
          J. E. Carpenter, J. A. Bohmann, C. M. Morales, P. Karafiloglou,
          C. R. Landis, and F. Weinhold, Theoretical Chemistry Institute,
          University of Wisconsin, Madison, WI (2018)

       /AONAO  / : Write the AO to NAO transformation to lfn33
       /BNDIDX / : Print bond indices based on the NAO density matrix

 Filename set to /tmp/C3H3+1-25059.tmp/Gau-1768

 Job title:  C3H3+1


 NATURAL POPULATIONS:  Natural atomic orbital occupancies

  NAO Atom No lang   Type(AO)    Occupancy      Energy
 -------------------------------------------------------
   1    C  1  s      Cor( 1s)     2.00000     -10.88735
   2    C  1  s      Val( 2s)     1.05038      -0.47077
   3    C  1  s      Ryd( 3s)     0.00219       0.80825
   4    C  1  s      Ryd( 4s)     0.00002       3.81404
   5    C  1  px     Val( 2p)     1.08959      -0.35214
   6    C  1  px     Ryd( 3p)     0.00103       0.37055
   7    C  1  py     Val( 2p)     1.17554      -0.31100
   8    C  1  py     Ryd( 3p)     0.00330       0.73485
   9    C  1  pz     Val( 2p)     0.66284      -0.38095
  10    C  1  pz     Ryd( 3p)     0.00020       0.36397
  11    C  1  dxy    Ryd( 3d)     0.00161       2.10979
  12    C  1  dxz    Ryd( 3d)     0.00000       1.56134
  13    C  1  dyz    Ryd( 3d)     0.00363       1.64716
  14    C  1  dx2y2  Ryd( 3d)     0.00194       1.98238
  15    C  1  dz2    Ryd( 3d)     0.00062       1.90114

  16    C  2  s      Cor( 1s)     2.00000     -10.88735
  17    C  2  s      Val( 2s)     1.05038      -0.47077
  18    C  2  s      Ryd( 3s)     0.00219       0.80825
  19    C  2  s      Ryd( 4s)     0.00002       3.81404
  20    C  2  px     Val( 2p)     1.15405      -0.32129
  21    C  2  px     Ryd( 3p)     0.00274       0.64378
  22    C  2  py     Val( 2p)     1.11107      -0.34186
  23    C  2  py     Ryd( 3p)     0.00160       0.46163
  24    C  2  pz     Val( 2p)     0.66284      -0.38095
  25    C  2  pz     Ryd( 3p)     0.00020       0.36397
  26    C  2  dxy    Ryd( 3d)     0.00186       2.01423
  27    C  2  dxz    Ryd( 3d)     0.00272       1.62570
  28    C  2  dyz    Ryd( 3d)     0.00091       1.58279
  29    C  2  dx2y2  Ryd( 3d)     0.00169       2.07794
  30    C  2  dz2    Ryd( 3d)     0.00062       1.90114

  31    C  3  s      Cor( 1s)     2.00000     -10.88735
  32    C  3  s      Val( 2s)     1.05038      -0.47077
  33    C  3  s      Ryd( 3s)     0.00219       0.80825
  34    C  3  s      Ryd( 4s)     0.00002       3.81404
  35    C  3  px     Val( 2p)     1.15405      -0.32129
  36    C  3  px     Ryd( 3p)     0.00274       0.64378
  37    C  3  py     Val( 2p)     1.11107      -0.34186
  38    C  3  py     Ryd( 3p)     0.00160       0.46163
  39    C  3  pz     Val( 2p)     0.66284      -0.38095
  40    C  3  pz     Ryd( 3p)     0.00020       0.36397
  41    C  3  dxy    Ryd( 3d)     0.00186       2.01423
  42    C  3  dxz    Ryd( 3d)     0.00272       1.62570
  43    C  3  dyz    Ryd( 3d)     0.00091       1.58279
  44    C  3  dx2y2  Ryd( 3d)     0.00169       2.07794
  45    C  3  dz2    Ryd( 3d)     0.00062       1.90114

  46    H  4  s      Val( 1s)     0.67350      -0.08379
  47    H  4  s      Ryd( 2s)     0.00028       0.35656

  48    H  5  s      Val( 1s)     0.67350      -0.08379
  49    H  5  s      Ryd( 2s)     0.00028       0.35656

  50    H  6  s      Val( 1s)     0.67350      -0.08379
  51    H  6  s      Ryd( 2s)     0.00028       0.35656


 Summary of Natural Population Analysis:

                                     Natural Population
             Natural    ---------------------------------------------
  Atom No    Charge        Core      Valence    Rydberg      Total
 --------------------------------------------------------------------
    C  1    0.00711      2.00000     3.97834    0.01455     5.99289
    C  2    0.00711      2.00000     3.97834    0.01455     5.99289
    C  3    0.00711      2.00000     3.97834    0.01455     5.99289
    H  4    0.32622      0.00000     0.67350    0.00028     0.67378
    H  5    0.32622      0.00000     0.67350    0.00028     0.67378
    H  6    0.32622      0.00000     0.67350    0.00028     0.67378
 ====================================================================
 * Total *  1.00000      5.99999    13.95554    0.04447    20.00000

                                 Natural Population
 ---------------------------------------------------------
   Core                       5.99999 ( 99.9998% of    6)
   Valence                   13.95554 ( 99.6824% of   14)
   Natural Minimal Basis     19.95553 ( 99.7776% of   20)
   Natural Rydberg Basis      0.04447 (  0.2224% of   20)
 ---------------------------------------------------------

    Atom No         Natural Electron Configuration
 ----------------------------------------------------------------------------
      C  1      [core]2s( 1.05)2p( 2.93)3d( 0.01)
      C  2      [core]2s( 1.05)2p( 2.93)3d( 0.01)
      C  3      [core]2s( 1.05)2p( 2.93)3d( 0.01)
      H  4            1s( 0.67)
      H  5            1s( 0.67)
      H  6            1s( 0.67)


 Wiberg bond index matrix in the NAO basis:

     Atom    1       2       3       4       5       6
     ---- ------  ------  ------  ------  ------  ------
   1.  C  0.0000  1.4293  1.4293  0.8618  0.0160  0.0160
   2.  C  1.4293  0.0000  1.4293  0.0160  0.8618  0.0160
   3.  C  1.4293  1.4293  0.0000  0.0160  0.0160  0.8618
   4.  H  0.8618  0.0160  0.0160  0.0000  0.0001  0.0001
   5.  H  0.0160  0.8618  0.0160  0.0001  0.0000  0.0001
   6.  H  0.0160  0.0160  0.8618  0.0001  0.0001  0.0000


 Wiberg bond index, Totals by atom:

     Atom    1
     ---- ------
   1.  C  3.7523
   2.  C  3.7523
   3.  C  3.7523
   4.  H  0.8940
   5.  H  0.8940
   6.  H  0.8940


 NBI: Natural Binding Index (NCU strength parameters)

     Atom    1       2       3       4       5       6
     ---- ------  ------  ------  ------  ------  ------
   1.  C  0.0000  1.1955  1.1955  0.9283  0.1264  0.1264
   2.  C  1.1955  0.0000  1.1955  0.1264  0.9283  0.1264
   3.  C  1.1955  1.1955  0.0000  0.1264  0.1264  0.9283
   4.  H  0.9283  0.1264  0.1264  0.0000  0.0106  0.0106
   5.  H  0.1264  0.9283  0.1264  0.0106  0.0000  0.0106
   6.  H  0.1264  0.1264  0.9283  0.0106  0.0106  0.0000


 NATURAL BOND ORBITAL ANALYSIS:

                            Occupancies       Lewis Structure    Low   High
         Max    Occ     -------------------  -----------------   occ   occ
  Cycle  Ctr   Thresh    Lewis   non-Lewis     CR  BD  nC  LP    (L)   (NL)
 ============================================================================
    1     2     1.90    18.54833   1.45167      3   6   0   1     1      2
    2     3     1.90    19.88166   0.11834      3   6   1   0     0      0
 ----------------------------------------------------------------------------

 Structure accepted: No low occupancy Lewis orbitals

 -------------------------------------------------------
   Core                      5.99999 (100.000% of   6)
   Valence Lewis            13.88168 ( 99.155% of  14)
  ==================      =============================
   Total Lewis              19.88166 ( 99.408% of  20)
  -----------------------------------------------------
   Valence non-Lewis         0.10512 (  0.526% of  20)
   Rydberg non-Lewis         0.01321 (  0.066% of  20)
  ==================      =============================
   Total non-Lewis           0.11834 (  0.592% of  20)
 -------------------------------------------------------


     (Occupancy)   Bond orbital / Coefficients / Hybrids
 ------------------ Lewis ------------------------------------------------------
   1. (2.00000) CR ( 1) C  1            s(100.00%)
                                         1.0000  0.0000  0.0000  0.0000  0.0000
                                         0.0000  0.0000  0.0000  0.0000  0.0000
                                         0.0000  0.0000  0.0000  0.0000  0.0000
   2. (2.00000) CR ( 1) C  2            s(100.00%)
                                         1.0000  0.0000  0.0000  0.0000  0.0000
                                         0.0000  0.0000  0.0000  0.0000  0.0000
                                         0.0000  0.0000  0.0000  0.0000  0.0000
   3. (2.00000) CR ( 1) C  3            s(100.00%)
                                         1.0000  0.0000  0.0000  0.0000  0.0000
                                         0.0000  0.0000  0.0000  0.0000  0.0000
                                         0.0000  0.0000  0.0000  0.0000  0.0000
   4. (1.96306) BD ( 1) C  1- C  2
               ( 50.00%)   0.7071* C  1 s( 28.42%)p 2.51( 71.46%)d 0.00(  0.12%)
                                         0.0000  0.5330 -0.0103 -0.0016 -0.7063
                                        -0.0209 -0.4631  0.0294  0.0000  0.0000
                                         0.0271  0.0000  0.0000 -0.0134 -0.0174
               ( 50.00%)   0.7071* C  2 s( 28.42%)p 2.51( 71.46%)d 0.00(  0.12%)
                                         0.0000  0.5330 -0.0103 -0.0016  0.0479
                                        -0.0359  0.8432  0.0034  0.0000  0.0000
                                         0.0252  0.0000  0.0000 -0.0168 -0.0174
   5. (1.96306) BD ( 1) C  1- C  3
               ( 50.00%)   0.7071* C  1 s( 28.42%)p 2.51( 71.46%)d 0.00(  0.12%)
                                         0.0000  0.5330 -0.0103 -0.0016  0.7063
                                         0.0209 -0.4631  0.0294  0.0000  0.0000
                                        -0.0271  0.0000  0.0000 -0.0134 -0.0174
               ( 50.00%)   0.7071* C  3 s( 28.42%)p 2.51( 71.46%)d 0.00(  0.12%)
                                         0.0000  0.5330 -0.0103 -0.0016 -0.0479
                                         0.0359  0.8432  0.0034  0.0000  0.0000
                                        -0.0252  0.0000  0.0000 -0.0168 -0.0174
   6. (1.99749) BD ( 1) C  1- H  4
               ( 67.06%)   0.8189* C  1 s( 43.04%)p 1.32( 56.91%)d 0.00(  0.05%)
                                         0.0000  0.6559  0.0129  0.0014  0.0000
                                         0.0000  0.7541 -0.0215  0.0000  0.0000
                                         0.0000  0.0000  0.0000 -0.0211 -0.0074
               ( 32.94%)   0.5739* H  4 s(100.00%)
                                         1.0000  0.0028
   7. (1.96306) BD ( 1) C  2- C  3
               ( 50.00%)   0.7071* C  2 s( 28.42%)p 2.51( 71.46%)d 0.00(  0.12%)
                                         0.0000  0.5330 -0.0103 -0.0016  0.7542
                                        -0.0150 -0.3801 -0.0328  0.0000  0.0000
                                        -0.0020  0.0000  0.0000  0.0302 -0.0174
               ( 50.00%)   0.7071* C  3 s( 28.42%)p 2.51( 71.46%)d 0.00(  0.12%)
                                         0.0000  0.5330 -0.0103 -0.0016 -0.7542
                                         0.0150 -0.3801 -0.0328  0.0000  0.0000
                                         0.0020  0.0000  0.0000  0.0302 -0.0174
   8. (1.99749) BD ( 1) C  2- H  5
               ( 67.06%)   0.8189* C  2 s( 43.04%)p 1.32( 56.91%)d 0.00(  0.05%)
                                         0.0000  0.6559  0.0129  0.0014 -0.6530
                                         0.0186 -0.3770  0.0107  0.0000  0.0000
                                         0.0183  0.0000  0.0000  0.0105 -0.0074
               ( 32.94%)   0.5739* H  5 s(100.00%)
                                         1.0000  0.0028
   9. (1.99749) BD ( 1) C  3- H  6
               ( 67.06%)   0.8189* C  3 s( 43.04%)p 1.32( 56.91%)d 0.00(  0.05%)
                                         0.0000  0.6559  0.0129  0.0014  0.6530
                                        -0.0186 -0.3770  0.0107  0.0000  0.0000
                                        -0.0183  0.0000  0.0000  0.0105 -0.0074
               ( 32.94%)   0.5739* H  6 s(100.00%)
                                         1.0000  0.0028
  10. (2.00000) 3C ( 1) C  1- C  2- C  3
               ( 33.33%)   0.5774* C  1 s(  0.00%)p 1.00( 99.46%)d 0.01(  0.54%)
                                         0.0000  0.0000  0.0000  0.0000  0.0000
                                         0.0000  0.0000  0.0000  0.9971  0.0174
                                         0.0000  0.0000 -0.0737  0.0000  0.0000
               ( 33.33%)   0.5774* C  2 s(  0.00%)p 1.00( 99.46%)d 0.01(  0.54%)
                                         0.0000  0.0000  0.0000  0.0000  0.0000
                                         0.0000  0.0000  0.0000  0.9971  0.0174
                                         0.0000  0.0639  0.0369  0.0000  0.0000
               ( 33.33%)   0.5774* C  3 s(  0.00%)p 1.00( 99.46%)d 0.01(  0.54%)
                                         0.0000  0.0000  0.0000  0.0000  0.0000
                                         0.0000  0.0000  0.0000  0.9971  0.0174
                                         0.0000 -0.0639  0.0369  0.0000  0.0000
 ---------------- non-Lewis ----------------------------------------------------
  11. (0.01187) BD*( 1) C  1- C  2
               ( 50.00%)   0.7071* C  1 s( 28.42%)p 2.51( 71.46%)d 0.00(  0.12%)
                                         0.0000  0.5330 -0.0103 -0.0016 -0.7063
                                        -0.0209 -0.4631  0.0294  0.0000  0.0000
                                         0.0271  0.0000  0.0000 -0.0134 -0.0174
               ( 50.00%)  -0.7071* C  2 s( 28.42%)p 2.51( 71.46%)d 0.00(  0.12%)
                                         0.0000  0.5330 -0.0103 -0.0016  0.0479
                                        -0.0359  0.8432  0.0034  0.0000  0.0000
                                         0.0252  0.0000  0.0000 -0.0168 -0.0174
  12. (0.01187) BD*( 1) C  1- C  3
               ( 50.00%)   0.7071* C  1 s( 28.42%)p 2.51( 71.46%)d 0.00(  0.12%)
                                         0.0000  0.5330 -0.0103 -0.0016  0.7063
                                         0.0209 -0.4631  0.0294  0.0000  0.0000
                                        -0.0271  0.0000  0.0000 -0.0134 -0.0174
               ( 50.00%)  -0.7071* C  3 s( 28.42%)p 2.51( 71.46%)d 0.00(  0.12%)
                                         0.0000  0.5330 -0.0103 -0.0016 -0.0479
                                         0.0359  0.8432  0.0034  0.0000  0.0000
                                        -0.0252  0.0000  0.0000 -0.0168 -0.0174
  13. (0.02317) BD*( 1) C  1- H  4
               ( 32.94%)   0.5739* C  1 s( 43.04%)p 1.32( 56.91%)d 0.00(  0.05%)
                                         0.0000 -0.6559 -0.0129 -0.0014  0.0000
                                         0.0000 -0.7541  0.0215  0.0000  0.0000
                                         0.0000  0.0000  0.0000  0.0211  0.0074
               ( 67.06%)  -0.8189* H  4 s(100.00%)
                                        -1.0000 -0.0028
  14. (0.01187) BD*( 1) C  2- C  3
               ( 50.00%)   0.7071* C  2 s( 28.42%)p 2.51( 71.46%)d 0.00(  0.12%)
                                         0.0000  0.5330 -0.0103 -0.0016  0.7542
                                        -0.0150 -0.3801 -0.0328  0.0000  0.0000
                                        -0.0020  0.0000  0.0000  0.0302 -0.0174
               ( 50.00%)  -0.7071* C  3 s( 28.42%)p 2.51( 71.46%)d 0.00(  0.12%)
                                         0.0000  0.5330 -0.0103 -0.0016 -0.7542
                                         0.0150 -0.3801 -0.0328  0.0000  0.0000
                                         0.0020  0.0000  0.0000  0.0302 -0.0174
  15. (0.02317) BD*( 1) C  2- H  5
               ( 32.94%)   0.5739* C  2 s( 43.04%)p 1.32( 56.91%)d 0.00(  0.05%)
                                         0.0000 -0.6559 -0.0129 -0.0014  0.6530
                                        -0.0186  0.3770 -0.0107  0.0000  0.0000
                                        -0.0183  0.0000  0.0000 -0.0105  0.0074
               ( 67.06%)  -0.8189* H  5 s(100.00%)
                                        -1.0000 -0.0028
  16. (0.02317) BD*( 1) C  3- H  6
               ( 32.94%)   0.5739* C  3 s( 43.04%)p 1.32( 56.91%)d 0.00(  0.05%)
                                         0.0000 -0.6559 -0.0129 -0.0014 -0.6530
                                         0.0186  0.3770 -0.0107  0.0000  0.0000
                                         0.0183  0.0000  0.0000 -0.0105  0.0074
               ( 67.06%)  -0.8189* H  6 s(100.00%)
                                        -1.0000 -0.0028
  17. (0.00000) 3Cn( 1) C  1- C  2- C  3
               ( 50.00%)   0.7071* C  1 s(  0.00%)p 1.00( 99.46%)d 0.01(  0.54%)
               ( 50.00%)   0.7071* C  2 s(  0.00%)p 1.00( 99.46%)d 0.01(  0.54%)
               (  0.00%)   0.0000* C  3 s(  0.00%)p 0.00(  0.00%)d 0.00(  0.00%)
  18. (0.00000) 3C*( 1) C  1- C  2- C  3
               ( 16.67%)   0.4082* C  1 s(  0.00%)p 1.00( 99.46%)d 0.01(  0.54%)
               ( 16.67%)  -0.4082* C  2 s(  0.00%)p 1.00( 99.46%)d 0.01(  0.54%)
               ( 66.67%)   0.8165* C  3 s(  0.00%)p 1.00( 99.46%)d 0.01(  0.54%)
  19. (0.00385) RY ( 1) C  1            s( 40.25%)p 0.87( 34.88%)d 0.62( 24.87%)
                                         0.0000  0.0060  0.6342 -0.0171  0.0000
                                         0.0000  0.0149  0.5904  0.0000  0.0000
                                         0.0000  0.0000  0.0000  0.4980  0.0266
  20. (0.00020) RY ( 2) C  1            s( 14.64%)p 2.83( 41.50%)d 3.00( 43.86%)
                                         0.0000 -0.0130 -0.2563  0.2838  0.0000
                                         0.0000  0.0255  0.6437  0.0000  0.0000
                                         0.0000  0.0000  0.0000 -0.4534  0.4828
  21. (0.00007) RY ( 3) C  1            s(  0.00%)p 1.00( 99.53%)d 0.00(  0.47%)
  22. (0.00000) RY ( 4) C  1            s( 82.63%)p 0.00(  0.05%)d 0.21( 17.32%)
  23. (0.00000) RY ( 5) C  1            s(  0.00%)p 1.00(100.00%)d 0.00(  0.00%)
  24. (0.00000) RY ( 6) C  1            s(  0.00%)p 1.00(  0.62%)d99.99( 99.38%)
  25. (0.00000) RY ( 7) C  1            s(  0.00%)p 0.00(  0.00%)d 1.00(100.00%)
  26. (0.00000) RY ( 8) C  1            s(  0.00%)p 1.00(  0.54%)d99.99( 99.46%)
  27. (0.00000) RY ( 9) C  1            s( 50.36%)p 0.39( 19.66%)d 0.60( 29.99%)
  28. (0.00000) RY (10) C  1            s( 12.25%)p 0.32(  3.93%)d 6.84( 83.82%)
  29. (0.00385) RY ( 1) C  2            s( 40.25%)p 0.87( 34.88%)d 0.62( 24.87%)
                                         0.0000  0.0060  0.6342 -0.0171 -0.0129
                                        -0.5113 -0.0075 -0.2952  0.0000  0.0000
                                        -0.4313  0.0000  0.0000 -0.2490  0.0266
  30. (0.00020) RY ( 2) C  2            s( 14.64%)p 2.83( 41.50%)d 3.00( 43.86%)
                                         0.0000 -0.0130 -0.2563  0.2838 -0.0221
                                        -0.5574 -0.0128 -0.3218  0.0000  0.0000
                                         0.3926  0.0000  0.0000  0.2267  0.4828
  31. (0.00007) RY ( 3) C  2            s(  0.00%)p 1.00( 99.53%)d 0.00(  0.47%)
  32. (0.00000) RY ( 4) C  2            s( 82.63%)p 0.00(  0.05%)d 0.21( 17.32%)
  33. (0.00000) RY ( 5) C  2            s(  0.00%)p 1.00(100.00%)d 0.00(  0.00%)
  34. (0.00000) RY ( 6) C  2            s( 12.25%)p 0.32(  3.93%)d 6.84( 83.82%)
  35. (0.00000) RY ( 7) C  2            s(  0.00%)p 1.00(  0.41%)d99.99( 99.59%)
  36. (0.00000) RY ( 8) C  2            s(  0.00%)p 1.00(  0.14%)d99.99( 99.86%)
  37. (0.00000) RY ( 9) C  2            s(  0.00%)p 1.00(  0.62%)d99.99( 99.38%)
  38. (0.00000) RY (10) C  2            s( 50.36%)p 0.39( 19.66%)d 0.60( 29.99%)
  39. (0.00385) RY ( 1) C  3            s( 40.25%)p 0.87( 34.88%)d 0.62( 24.87%)
                                         0.0000  0.0060  0.6342 -0.0171  0.0129
                                         0.5113 -0.0075 -0.2952  0.0000  0.0000
                                         0.4313  0.0000  0.0000 -0.2490  0.0266
  40. (0.00020) RY ( 2) C  3            s( 14.64%)p 2.83( 41.50%)d 3.00( 43.86%)
                                         0.0000 -0.0130 -0.2563  0.2838  0.0221
                                         0.5574 -0.0128 -0.3218  0.0000  0.0000
                                        -0.3926  0.0000  0.0000  0.2267  0.4828
  41. (0.00007) RY ( 3) C  3            s(  0.00%)p 1.00( 99.53%)d 0.00(  0.47%)
  42. (0.00000) RY ( 4) C  3            s( 82.63%)p 0.00(  0.05%)d 0.21( 17.32%)
  43. (0.00000) RY ( 5) C  3            s(  0.00%)p 1.00(100.00%)d 0.00(  0.00%)
  44. (0.00000) RY ( 6) C  3            s( 12.25%)p 0.32(  3.93%)d 6.84( 83.82%)
  45. (0.00000) RY ( 7) C  3            s(  0.00%)p 1.00(  0.41%)d99.99( 99.59%)
  46. (0.00000) RY ( 8) C  3            s(  0.00%)p 1.00(  0.14%)d99.99( 99.86%)
  47. (0.00000) RY ( 9) C  3            s(  0.00%)p 1.00(  0.62%)d99.99( 99.38%)
  48. (0.00000) RY (10) C  3            s( 50.36%)p 0.39( 19.66%)d 0.60( 29.99%)
  49. (0.00028) RY ( 1) H  4            s(100.00%)
                                        -0.0028  1.0000
  50. (0.00028) RY ( 1) H  5            s(100.00%)
                                        -0.0028  1.0000
  51. (0.00028) RY ( 1) H  6            s(100.00%)
                                        -0.0028  1.0000


 NHO DIRECTIONALITY AND BOND BENDING (deviation from line of nuclear centers at
                                      the position of maximum hybrid amplitude)

         [Thresholds for printing:  angular deviation  >  1.0 degree]
                                    p- or d-character  > 25.0%
                                    orbital occupancy  >  0.10e

                        Line of Centers        Hybrid 1             Hybrid 2
                        ---------------  -------------------  ------------------
           NBO            Theta   Phi    Theta   Phi    Dev   Theta   Phi    Dev
 ===============================================================================
   4. BD ( 1) C  1- C  2   90.0  240.0    90.0  218.3  21.7    90.0   81.7  21.7
   5. BD ( 1) C  1- C  3   90.0  300.0    90.0  321.7  21.7    90.0   98.3  21.7
   7. BD ( 1) C  2- C  3   90.0    0.0    90.0  338.3  21.7    90.0  201.7  21.7


 SECOND ORDER PERTURBATION THEORY ANALYSIS OF FOCK MATRIX IN NBO BASIS

     Threshold for printing:   0.50 kcal/mol
                                                          E(2) E(NL)-E(L) F(L,NL)
      Donor (L) NBO              Acceptor (NL) NBO      kcal/mol   a.u.    a.u.
 ===============================================================================

 within unit  1
    4. BD ( 1) C  1- C  2      12. BD*( 1) C  1- C  3      6.03    1.20   0.076
    4. BD ( 1) C  1- C  2      13. BD*( 1) C  1- H  4      0.69    1.22   0.026
    4. BD ( 1) C  1- C  2      14. BD*( 1) C  2- C  3      6.03    1.20   0.076
    4. BD ( 1) C  1- C  2      15. BD*( 1) C  2- H  5      0.69    1.22   0.026
    4. BD ( 1) C  1- C  2      16. BD*( 1) C  3- H  6     19.68    1.22   0.138
    4. BD ( 1) C  1- C  2      39. RY ( 1) C  3            1.55    2.12   0.051
    5. BD ( 1) C  1- C  3      11. BD*( 1) C  1- C  2      6.03    1.20   0.076
    5. BD ( 1) C  1- C  3      13. BD*( 1) C  1- H  4      0.69    1.22   0.026
    5. BD ( 1) C  1- C  3      14. BD*( 1) C  2- C  3      6.03    1.20   0.076
    5. BD ( 1) C  1- C  3      15. BD*( 1) C  2- H  5     19.68    1.22   0.138
    5. BD ( 1) C  1- C  3      16. BD*( 1) C  3- H  6      0.69    1.22   0.026
    5. BD ( 1) C  1- C  3      29. RY ( 1) C  2            1.55    2.12   0.051
    6. BD ( 1) C  1- H  4      29. RY ( 1) C  2            0.75    2.10   0.035
    6. BD ( 1) C  1- H  4      39. RY ( 1) C  3            0.75    2.10   0.035
    7. BD ( 1) C  2- C  3      11. BD*( 1) C  1- C  2      6.03    1.20   0.076
    7. BD ( 1) C  2- C  3      12. BD*( 1) C  1- C  3      6.03    1.20   0.076
    7. BD ( 1) C  2- C  3      13. BD*( 1) C  1- H  4     19.68    1.22   0.138
    7. BD ( 1) C  2- C  3      15. BD*( 1) C  2- H  5      0.69    1.22   0.026
    7. BD ( 1) C  2- C  3      16. BD*( 1) C  3- H  6      0.69    1.22   0.026
    7. BD ( 1) C  2- C  3      19. RY ( 1) C  1            1.55    2.12   0.051
    8. BD ( 1) C  2- H  5      19. RY ( 1) C  1            0.75    2.10   0.035
    8. BD ( 1) C  2- H  5      39. RY ( 1) C  3            0.75    2.10   0.035
    9. BD ( 1) C  3- H  6      19. RY ( 1) C  1            0.75    2.10   0.035
    9. BD ( 1) C  3- H  6      29. RY ( 1) C  2            0.75    2.10   0.035


 NATURAL BOND ORBITALS (Summary):

                                                     Principal Delocalizations
           NBO                 Occupancy    Energy   (geminal,vicinal,remote)
 ===============================================================================
 Molecular unit  1  (C3H3)
 ------ Lewis --------------------------------------
    1. CR ( 1) C  1             2.00000   -10.88735
    2. CR ( 1) C  2             2.00000   -10.88735
    3. CR ( 1) C  3             2.00000   -10.88735
    4. BD ( 1) C  1- C  2       1.96306    -0.91061  16(v),12(g),14(g),39(v)
                                                     13(g),15(g)
    5. BD ( 1) C  1- C  3       1.96306    -0.91061  15(v),11(g),14(g),29(v)
                                                     13(g),16(g)
    6. BD ( 1) C  1- H  4       1.99749    -0.88389  29(v),39(v)
    7. BD ( 1) C  2- C  3       1.96306    -0.91061  13(v),11(g),12(g),19(v)
                                                     15(g),16(g)
    8. BD ( 1) C  2- H  5       1.99749    -0.88389  19(v),39(v)
    9. BD ( 1) C  3- H  6       1.99749    -0.88389  19(v),29(v)
   10. 3C ( 1) C  1- C  2- C  3 2.00000    -0.72678
 ------ non-Lewis ----------------------------------
   11. BD*( 1) C  1- C  2       0.01187     0.28730
   12. BD*( 1) C  1- C  3       0.01187     0.28730
   13. BD*( 1) C  1- H  4       0.02317     0.30742
   14. BD*( 1) C  2- C  3       0.01187     0.28730
   15. BD*( 1) C  2- H  5       0.02317     0.30742
   16. BD*( 1) C  3- H  6       0.02317     0.30742
   17. 3Cn( 1) C  1- C  2- C  3 0.00000    -0.19263
   18. 3C*( 1) C  1- C  2- C  3 0.00000    -0.19263
   19. RY ( 1) C  1             0.00385     1.21205
   20. RY ( 2) C  1             0.00020     1.22405
   21. RY ( 3) C  1             0.00007     0.37000
   22. RY ( 4) C  1             0.00000     3.27133
   23. RY ( 5) C  1             0.00000     0.36093
   24. RY ( 6) C  1             0.00000     2.09764
   25. RY ( 7) C  1             0.00000     1.56134
   26. RY ( 8) C  1             0.00000     1.63993
   27. RY ( 9) C  1             0.00000     1.43988
   28. RY (10) C  1             0.00000     2.08967
   29. RY ( 1) C  2             0.00385     1.21205
   30. RY ( 2) C  2             0.00020     1.22405
   31. RY ( 3) C  2             0.00007     0.37000
   32. RY ( 4) C  2             0.00000     3.27133
   33. RY ( 5) C  2             0.00000     0.36093
   34. RY ( 6) C  2             0.00000     2.08967
   35. RY ( 7) C  2             0.00000     1.62036
   36. RY ( 8) C  2             0.00000     1.58090
   37. RY ( 9) C  2             0.00000     2.09764
   38. RY (10) C  2             0.00000     1.43988
   39. RY ( 1) C  3             0.00385     1.21205
   40. RY ( 2) C  3             0.00020     1.22405
   41. RY ( 3) C  3             0.00007     0.37000
   42. RY ( 4) C  3             0.00000     3.27133
   43. RY ( 5) C  3             0.00000     0.36093
   44. RY ( 6) C  3             0.00000     2.08967
   45. RY ( 7) C  3             0.00000     1.62036
   46. RY ( 8) C  3             0.00000     1.58090
   47. RY ( 9) C  3             0.00000     2.09764
   48. RY (10) C  3             0.00000     1.43988
   49. RY ( 1) H  4             0.00028     0.35503
   50. RY ( 1) H  5             0.00028     0.35503
   51. RY ( 1) H  6             0.00028     0.35503
          -------------------------------
                 Total Lewis   19.88166  ( 99.4083%)
           Valence non-Lewis    0.10512  (  0.5256%)
           Rydberg non-Lewis    0.01321  (  0.0661%)
          -------------------------------
               Total unit  1   20.00000  (100.0000%)
              Charge unit  1    1.00000

 $CHOOSE
   BOND S 1 2 S 1 3 S 1 4 S 2 3 S 2 5 S 3 6 END
     3C S 1 2 3 END
 $END

 NBO analysis completed in 0.07 CPU seconds (0 wall seconds)
 Maximum scratch memory used by NBO was 317298 words (2.42 MB)
 Maximum scratch memory used by G16NBO was 12383 words (0.09 MB)

 Opening RunExU unformatted file "/tmp/C3H3+1-25059.tmp/Gau-1768.EUF"
 Read unf file /tmp/C3H3+1-25059.tmp/Gau-1768.EUF:
 Label Gaussian matrix elements                                         IVers= 1 NLab= 2 Version=ES64L-G16RevB.01
 Title C3H3+1                                                          
 NAtoms=     6 NBasis=    51 NBsUse=    51 ICharg=     1 Multip=     1 NE=    20 Len12L=8 Len4L=8 IOpCl= 0 ICGU= -1
 GAUSSIAN SCALARS                    NI= 1 NR= 1 NTot=       1 LenBuf=    2 NRI=1 N=    1000
 NPA CHARGES                         NI= 0 NR= 1 NTot=       6 LenBuf= 2048 NRI=1 N=       6
 Recovered energy= -115.680115482     dipole=     -0.000000000000     -0.000000000000      0.000000000000
 1\1\GINC-CU10\SP\RM062X\6-31G(d)\C3H3(1+)\WANG\10-Apr-2020\0\\# M062X/
 6-31G* fchk=All Pop=NBO6Read SYMM=loose\\C3H3+1\\1,1\C,0,0.,0.786535,0
 .\C,0,0.681159,-0.393267,0.\C,0,-0.681159,-0.393267,0.\H,0,0.,1.870812
 ,0.\H,0,1.620171,-0.935406,0.\H,0,-1.620171,-0.935406,0.\\Version=ES64
 L-G16RevB.01\State=1-A1'\HF=-115.6801155\RMSD=7.209e-09\Dipole=0.,0.,0
 .\Quadrupole=1.486129,1.486129,-2.9722579,0.,0.,0.\PG=D03H [3C2(.C1H1)
 ]\\@


 FIREWORKS ENDED
 AND SPECTATORS GONE AWAY....
 AH, HOW VAST AND DARK
                     SHIKI
 FChkPn:  Coordinates translated and rotated.
 FChkPn:  Coordinates match /B/ after translation and rotation.
 Job cpu time:       0 days  0 hours  0 minutes 55.2 seconds.
 Elapsed time:       0 days  0 hours  0 minutes  2.1 seconds.
 File lengths (MBytes):  RWF=      6 Int=      0 D2E=      0 Chk=      1 Scr=      1
 Normal termination of Gaussian 16 at Fri Apr 10 22:20:05 2020.
