Product                                                                 
SP        RM062X                                                      def2SVP             
Number of atoms                            I               22
Info1-9                                    I   N=           9
          36          35           0           0           0         110
           1          18       -5502
Full Title                                 C   N=           1
Product     
Route                                      C   N=           3
# M062X/Def2SVP EM=GD3 POP=NBO6Read 
Charge                                     I                0
Multiplicity                               I                1
Number of electrons                        I               76
Number of alpha electrons                  I               38
Number of beta electrons                   I               38
Number of basis functions                  I              200
Number of independent functions            I              200
Number of point charges in /Mol/           I                0
Number of translation vectors              I                0
Atomic numbers                             I   N=          22
           6           6           1           1           1           6
           6           6           6           1           1           1
           1           1           8           6           1           8
           6           1           1           1
Nuclear charges                            R   N=          22
  6.00000000E+00  6.00000000E+00  1.00000000E+00  1.00000000E+00  1.00000000E+00
  6.00000000E+00  6.00000000E+00  6.00000000E+00  6.00000000E+00  1.00000000E+00
  1.00000000E+00  1.00000000E+00  1.00000000E+00  1.00000000E+00  8.00000000E+00
  6.00000000E+00  1.00000000E+00  8.00000000E+00  6.00000000E+00  1.00000000E+00
  1.00000000E+00  1.00000000E+00
Current cartesian coordinates              R   N=          66
 -2.71803980E+00  5.13085233E-01  2.01726565E+00  1.44052083E-02  9.49023454E-01
  1.19621998E+00 -3.62889029E+00  2.30931630E+00  2.53256832E+00 -2.69512886E+00
 -6.63750017E-01  3.73384094E+00  1.06902084E+00  2.00683513E+00  2.66029923E+00
 -4.18150805E+00 -8.21830604E-01 -8.22017184E-02 -2.74739015E+00 -3.05557363E+00
 -1.09772704E+00 -2.78672075E-01 -3.40156465E+00 -7.10340286E-01  1.35078984E+00
 -1.58675744E+00  7.59653924E-01 -6.04824972E+00 -1.42744524E+00  6.05620504E-01
 -4.54182195E+00  5.08099057E-01 -1.64852393E+00 -3.79464535E+00 -4.43654523E+00
 -2.22305670E+00  6.48627511E-01 -5.07634915E+00 -1.49299802E+00  1.85558260E+00
 -2.38426892E+00  2.61844853E+00  1.57337562E-01  2.27413381E+00 -1.11486247E+00
  3.84899343E+00 -1.03663961E+00 -5.61840016E-01  3.86108240E+00 -1.30188748E+00
 -2.65527193E+00  5.69113516E+00 -3.27977951E-01  5.50308263E-01 -5.24997181E-01
  4.82436693E+00 -9.75028526E-01 -4.70751852E-02  5.70110430E+00 -2.79161205E+00
 -2.56903015E+00  5.08140404E+00 -6.39466243E-01  5.21259046E-01  5.80958220E+00
  5.40573239E-01
Number of symbols in /Mol/                 I                0
Force Field                                I                0
Atom Types                                 C   N=          22
                                                            
                                                            
                                                            
                                                            
                        
Int Atom Types                             I   N=          22
           0           0           0           0           0           0
           0           0           0           0           0           0
           0           0           0           0           0           0
           0           0           0           0
MM charges                                 R   N=          22
  0.00000000E+00  0.00000000E+00  0.00000000E+00  0.00000000E+00  0.00000000E+00
  0.00000000E+00  0.00000000E+00  0.00000000E+00  0.00000000E+00  0.00000000E+00
  0.00000000E+00  0.00000000E+00  0.00000000E+00  0.00000000E+00  0.00000000E+00
  0.00000000E+00  0.00000000E+00  0.00000000E+00  0.00000000E+00  0.00000000E+00
  0.00000000E+00  0.00000000E+00
Integer atomic weights                     I   N=          22
          12          12           1           1           1          12
          12          12          12           1           1           1
           1           1          16          12           1          16
          12           1           1           1
Real atomic weights                        R   N=          22
  1.20000000E+01  1.20000000E+01  1.00782504E+00  1.00782504E+00  1.00782504E+00
  1.20000000E+01  1.20000000E+01  1.20000000E+01  1.20000000E+01  1.00782504E+00
  1.00782504E+00  1.00782504E+00  1.00782504E+00  1.00782504E+00  1.59949146E+01
  1.20000000E+01  1.00782504E+00  1.59949146E+01  1.20000000E+01  1.00782504E+00
  1.00782504E+00  1.00782504E+00
Atom fragment info                         I   N=          22
           0           0           0           0           0           0
           0           0           0           0           0           0
           0           0           0           0           0           0
           0           0           0           0
Atom residue num                           I   N=          22
           0           0           0           0           0           0
           0           0           0           0           0           0
           0           0           0           0           0           0
           0           0           0           0
Nuclear spins                              I   N=          22
           0           0           1           1           1           0
           0           0           0           1           1           1
           1           1           0           0           1           0
           0           1           1           1
Nuclear ZEff                               R   N=          22
 -3.60000000E+00 -3.60000000E+00 -1.00000000E+00 -1.00000000E+00 -1.00000000E+00
 -3.60000000E+00 -3.60000000E+00 -3.60000000E+00 -3.60000000E+00 -1.00000000E+00
 -1.00000000E+00 -1.00000000E+00 -1.00000000E+00 -1.00000000E+00 -5.60000000E+00
 -3.60000000E+00 -1.00000000E+00 -5.60000000E+00 -3.60000000E+00 -1.00000000E+00
 -1.00000000E+00 -1.00000000E+00
Nuclear ZNuc                               R   N=          22
  6.00000000E+00  6.00000000E+00  1.00000000E+00  1.00000000E+00  1.00000000E+00
  6.00000000E+00  6.00000000E+00  6.00000000E+00  6.00000000E+00  1.00000000E+00
  1.00000000E+00  1.00000000E+00  1.00000000E+00  1.00000000E+00  8.00000000E+00
  6.00000000E+00  1.00000000E+00  8.00000000E+00  6.00000000E+00  1.00000000E+00
  1.00000000E+00  1.00000000E+00
Nuclear QMom                               R   N=          22
  0.00000000E+00  0.00000000E+00  0.00000000E+00  0.00000000E+00  0.00000000E+00
  0.00000000E+00  0.00000000E+00  0.00000000E+00  0.00000000E+00  0.00000000E+00
  0.00000000E+00  0.00000000E+00  0.00000000E+00  0.00000000E+00  0.00000000E+00
  0.00000000E+00  0.00000000E+00  0.00000000E+00  0.00000000E+00  0.00000000E+00
  0.00000000E+00  0.00000000E+00
Nuclear GFac                               R   N=          22
  0.00000000E+00  0.00000000E+00  2.79284600E+00  2.79284600E+00  2.79284600E+00
  0.00000000E+00  0.00000000E+00  0.00000000E+00  0.00000000E+00  2.79284600E+00
  2.79284600E+00  2.79284600E+00  2.79284600E+00  2.79284600E+00  0.00000000E+00
  0.00000000E+00  2.79284600E+00  0.00000000E+00  0.00000000E+00  2.79284600E+00
  2.79284600E+00  2.79284600E+00
MicOpt                                     I   N=          22
          -1          -1          -1          -1          -1          -1
          -1          -1          -1          -1          -1          -1
          -1          -1          -1          -1          -1          -1
          -1          -1          -1          -1
Number of residues                         I                0
Number of secondary structures             I                0
SymInf integers                            I   N=          26
           1           1           1           1           1           0
           0           0           0           0           0           0
           0           0           0           0           0           0
           0           0           0           0           0           0
           0           0
RotTr to input orientation                 R   N=          12
 -2.79341451E-01  6.18599192E-02  9.58197111E-01  6.07089775E-01  7.84526141E-01
  1.26335817E-01 -7.43915559E-01  6.17002499E-01 -2.56705195E-01  9.46538951E-02
  6.77900955E-02 -1.19073036E-01
Number of contracted shells                I               96
Number of primitive shells                 I              180
Pure/Cartesian d shells                    I                0
Pure/Cartesian f shells                    I                0
Highest angular momentum                   I                2
Largest degree of contraction              I                5
Shell types                                I   N=          96
           0           0           0           1           1          -2
           0           0           0           1           1          -2
           0           0           1           0           0           1
           0           0           1           0           0           0
           1           1          -2           0           0           0
           1           1          -2           0           0           0
           1           1          -2           0           0           0
           1           1          -2           0           0           1
           0           0           1           0           0           1
           0           0           1           0           0           1
           0           0           0           1           1          -2
           0           0           0           1           1          -2
           0           0           1           0           0           0
           1           1          -2           0           0           0
           1           1          -2           0           0           1
           0           0           1           0           0           1
Number of primitives per shell             I   N=          96
           5           1           1           3           1           1
           5           1           1           3           1           1
           3           1           1           3           1           1
           3           1           1           5           1           1
           3           1           1           5           1           1
           3           1           1           5           1           1
           3           1           1           5           1           1
           3           1           1           3           1           1
           3           1           1           3           1           1
           3           1           1           3           1           1
           5           1           1           3           1           1
           5           1           1           3           1           1
           3           1           1           5           1           1
           3           1           1           5           1           1
           3           1           1           3           1           1
           3           1           1           3           1           1
Shell to atom map                          I   N=          96
           1           1           1           1           1           1
           2           2           2           2           2           2
           3           3           3           4           4           4
           5           5           5           6           6           6
           6           6           6           7           7           7
           7           7           7           8           8           8
           8           8           8           9           9           9
           9           9           9          10          10          10
          11          11          11          12          12          12
          13          13          13          14          14          14
          15          15          15          15          15          15
          16          16          16          16          16          16
          17          17          17          18          18          18
          18          18          18          19          19          19
          19          19          19          20          20          20
          21          21          21          22          22          22
Primitive exponents                        R   N=         180
  1.23840169E+03  1.86290050E+02  4.22511763E+01  1.16765579E+01  3.59305065E+00
  4.02451474E-01  1.30901827E-01  9.46809706E+00  2.01035451E+00  5.47710047E-01
  1.52686138E-01  8.00000000E-01  1.23840169E+03  1.86290050E+02  4.22511763E+01
  1.16765579E+01  3.59305065E+00  4.02451474E-01  1.30901827E-01  9.46809706E+00
  2.01035451E+00  5.47710047E-01  1.52686138E-01  8.00000000E-01  1.30107010E+01
  1.96225720E+00  4.44537960E-01  1.21949620E-01  8.00000000E-01  1.30107010E+01
  1.96225720E+00  4.44537960E-01  1.21949620E-01  8.00000000E-01  1.30107010E+01
  1.96225720E+00  4.44537960E-01  1.21949620E-01  8.00000000E-01  1.23840169E+03
  1.86290050E+02  4.22511763E+01  1.16765579E+01  3.59305065E+00  4.02451474E-01
  1.30901827E-01  9.46809706E+00  2.01035451E+00  5.47710047E-01  1.52686138E-01
  8.00000000E-01  1.23840169E+03  1.86290050E+02  4.22511763E+01  1.16765579E+01
  3.59305065E+00  4.02451474E-01  1.30901827E-01  9.46809706E+00  2.01035451E+00
  5.47710047E-01  1.52686138E-01  8.00000000E-01  1.23840169E+03  1.86290050E+02
  4.22511763E+01  1.16765579E+01  3.59305065E+00  4.02451474E-01  1.30901827E-01
  9.46809706E+00  2.01035451E+00  5.47710047E-01  1.52686138E-01  8.00000000E-01
  1.23840169E+03  1.86290050E+02  4.22511763E+01  1.16765579E+01  3.59305065E+00
  4.02451474E-01  1.30901827E-01  9.46809706E+00  2.01035451E+00  5.47710047E-01
  1.52686138E-01  8.00000000E-01  1.30107010E+01  1.96225720E+00  4.44537960E-01
  1.21949620E-01  8.00000000E-01  1.30107010E+01  1.96225720E+00  4.44537960E-01
  1.21949620E-01  8.00000000E-01  1.30107010E+01  1.96225720E+00  4.44537960E-01
  1.21949620E-01  8.00000000E-01  1.30107010E+01  1.96225720E+00  4.44537960E-01
  1.21949620E-01  8.00000000E-01  1.30107010E+01  1.96225720E+00  4.44537960E-01
  1.21949620E-01  8.00000000E-01  2.26617678E+03  3.40870102E+02  7.73631352E+01
  2.14796449E+01  6.65894331E+00  8.09759757E-01  2.55307722E-01  1.77215043E+01
  3.86355054E+00  1.04809209E+00  2.76415444E-01  1.20000000E+00  1.23840169E+03
  1.86290050E+02  4.22511763E+01  1.16765579E+01  3.59305065E+00  4.02451474E-01
  1.30901827E-01  9.46809706E+00  2.01035451E+00  5.47710047E-01  1.52686138E-01
  8.00000000E-01  1.30107010E+01  1.96225720E+00  4.44537960E-01  1.21949620E-01
  8.00000000E-01  2.26617678E+03  3.40870102E+02  7.73631352E+01  2.14796449E+01
  6.65894331E+00  8.09759757E-01  2.55307722E-01  1.77215043E+01  3.86355054E+00
  1.04809209E+00  2.76415444E-01  1.20000000E+00  1.23840169E+03  1.86290050E+02
  4.22511763E+01  1.16765579E+01  3.59305065E+00  4.02451474E-01  1.30901827E-01
  9.46809706E+00  2.01035451E+00  5.47710047E-01  1.52686138E-01  8.00000000E-01
  1.30107010E+01  1.96225720E+00  4.44537960E-01  1.21949620E-01  8.00000000E-01
  1.30107010E+01  1.96225720E+00  4.44537960E-01  1.21949620E-01  8.00000000E-01
  1.30107010E+01  1.96225720E+00  4.44537960E-01  1.21949620E-01  8.00000000E-01
Contraction coefficients                   R   N=         180
  5.51736505E-03  4.10888286E-02  1.82253821E-01  4.68284594E-01  4.45758173E-01
  1.00000000E+00  1.00000000E+00  5.68883320E-02  3.12940593E-01  7.60650165E-01
  1.00000000E+00  1.00000000E+00  5.51736505E-03  4.10888286E-02  1.82253821E-01
  4.68284594E-01  4.45758173E-01  1.00000000E+00  1.00000000E+00  5.68883320E-02
  3.12940593E-01  7.60650165E-01  1.00000000E+00  1.00000000E+00  3.34854848E-02
  2.34721871E-01  8.13770285E-01  1.00000000E+00  1.00000000E+00  3.34854848E-02
  2.34721871E-01  8.13770285E-01  1.00000000E+00  1.00000000E+00  3.34854848E-02
  2.34721871E-01  8.13770285E-01  1.00000000E+00  1.00000000E+00  5.51736505E-03
  4.10888286E-02  1.82253821E-01  4.68284594E-01  4.45758173E-01  1.00000000E+00
  1.00000000E+00  5.68883320E-02  3.12940593E-01  7.60650165E-01  1.00000000E+00
  1.00000000E+00  5.51736505E-03  4.10888286E-02  1.82253821E-01  4.68284594E-01
  4.45758173E-01  1.00000000E+00  1.00000000E+00  5.68883320E-02  3.12940593E-01
  7.60650165E-01  1.00000000E+00  1.00000000E+00  5.51736505E-03  4.10888286E-02
  1.82253821E-01  4.68284594E-01  4.45758173E-01  1.00000000E+00  1.00000000E+00
  5.68883320E-02  3.12940593E-01  7.60650165E-01  1.00000000E+00  1.00000000E+00
  5.51736505E-03  4.10888286E-02  1.82253821E-01  4.68284594E-01  4.45758173E-01
  1.00000000E+00  1.00000000E+00  5.68883320E-02  3.12940593E-01  7.60650165E-01
  1.00000000E+00  1.00000000E+00  3.34854848E-02  2.34721871E-01  8.13770285E-01
  1.00000000E+00  1.00000000E+00  3.34854848E-02  2.34721871E-01  8.13770285E-01
  1.00000000E+00  1.00000000E+00  3.34854848E-02  2.34721871E-01  8.13770285E-01
  1.00000000E+00  1.00000000E+00  3.34854848E-02  2.34721871E-01  8.13770285E-01
  1.00000000E+00  1.00000000E+00  3.34854848E-02  2.34721871E-01  8.13770285E-01
  1.00000000E+00  1.00000000E+00 -5.38935039E-03 -4.02347214E-02 -1.80081842E-01
 -4.68288577E-01 -4.46926172E-01  1.00000000E+00  1.00000000E+00  6.26302488E-02
  3.33311385E-01  7.41486383E-01  1.00000000E+00  1.00000000E+00  5.51736505E-03
  4.10888286E-02  1.82253821E-01  4.68284594E-01  4.45758173E-01  1.00000000E+00
  1.00000000E+00  5.68883320E-02  3.12940593E-01  7.60650165E-01  1.00000000E+00
  1.00000000E+00  3.34854848E-02  2.34721871E-01  8.13770285E-01  1.00000000E+00
  1.00000000E+00 -5.38935039E-03 -4.02347214E-02 -1.80081842E-01 -4.68288577E-01
 -4.46926172E-01  1.00000000E+00  1.00000000E+00  6.26302488E-02  3.33311385E-01
  7.41486383E-01  1.00000000E+00  1.00000000E+00  5.51736505E-03  4.10888286E-02
  1.82253821E-01  4.68284594E-01  4.45758173E-01  1.00000000E+00  1.00000000E+00
  5.68883320E-02  3.12940593E-01  7.60650165E-01  1.00000000E+00  1.00000000E+00
  3.34854848E-02  2.34721871E-01  8.13770285E-01  1.00000000E+00  1.00000000E+00
  3.34854848E-02  2.34721871E-01  8.13770285E-01  1.00000000E+00  1.00000000E+00
  3.34854848E-02  2.34721871E-01  8.13770285E-01  1.00000000E+00  1.00000000E+00
Coordinates of each shell                  R   N=         288
 -2.71803980E+00  5.13085233E-01  2.01726565E+00 -2.71803980E+00  5.13085233E-01
  2.01726565E+00 -2.71803980E+00  5.13085233E-01  2.01726565E+00 -2.71803980E+00
  5.13085233E-01  2.01726565E+00 -2.71803980E+00  5.13085233E-01  2.01726565E+00
 -2.71803980E+00  5.13085233E-01  2.01726565E+00  1.44052083E-02  9.49023454E-01
  1.19621998E+00  1.44052083E-02  9.49023454E-01  1.19621998E+00  1.44052083E-02
  9.49023454E-01  1.19621998E+00  1.44052083E-02  9.49023454E-01  1.19621998E+00
  1.44052083E-02  9.49023454E-01  1.19621998E+00  1.44052083E-02  9.49023454E-01
  1.19621998E+00 -3.62889029E+00  2.30931630E+00  2.53256832E+00 -3.62889029E+00
  2.30931630E+00  2.53256832E+00 -3.62889029E+00  2.30931630E+00  2.53256832E+00
 -2.69512886E+00 -6.63750017E-01  3.73384094E+00 -2.69512886E+00 -6.63750017E-01
  3.73384094E+00 -2.69512886E+00 -6.63750017E-01  3.73384094E+00  1.06902084E+00
  2.00683513E+00  2.66029923E+00  1.06902084E+00  2.00683513E+00  2.66029923E+00
  1.06902084E+00  2.00683513E+00  2.66029923E+00 -4.18150805E+00 -8.21830604E-01
 -8.22017184E-02 -4.18150805E+00 -8.21830604E-01 -8.22017184E-02 -4.18150805E+00
 -8.21830604E-01 -8.22017184E-02 -4.18150805E+00 -8.21830604E-01 -8.22017184E-02
 -4.18150805E+00 -8.21830604E-01 -8.22017184E-02 -4.18150805E+00 -8.21830604E-01
 -8.22017184E-02 -2.74739015E+00 -3.05557363E+00 -1.09772704E+00 -2.74739015E+00
 -3.05557363E+00 -1.09772704E+00 -2.74739015E+00 -3.05557363E+00 -1.09772704E+00
 -2.74739015E+00 -3.05557363E+00 -1.09772704E+00 -2.74739015E+00 -3.05557363E+00
 -1.09772704E+00 -2.74739015E+00 -3.05557363E+00 -1.09772704E+00 -2.78672075E-01
 -3.40156465E+00 -7.10340286E-01 -2.78672075E-01 -3.40156465E+00 -7.10340286E-01
 -2.78672075E-01 -3.40156465E+00 -7.10340286E-01 -2.78672075E-01 -3.40156465E+00
 -7.10340286E-01 -2.78672075E-01 -3.40156465E+00 -7.10340286E-01 -2.78672075E-01
 -3.40156465E+00 -7.10340286E-01  1.35078984E+00 -1.58675744E+00  7.59653924E-01
  1.35078984E+00 -1.58675744E+00  7.59653924E-01  1.35078984E+00 -1.58675744E+00
  7.59653924E-01  1.35078984E+00 -1.58675744E+00  7.59653924E-01  1.35078984E+00
 -1.58675744E+00  7.59653924E-01  1.35078984E+00 -1.58675744E+00  7.59653924E-01
 -6.04824972E+00 -1.42744524E+00  6.05620504E-01 -6.04824972E+00 -1.42744524E+00
  6.05620504E-01 -6.04824972E+00 -1.42744524E+00  6.05620504E-01 -4.54182195E+00
  5.08099057E-01 -1.64852393E+00 -4.54182195E+00  5.08099057E-01 -1.64852393E+00
 -4.54182195E+00  5.08099057E-01 -1.64852393E+00 -3.79464535E+00 -4.43654523E+00
 -2.22305670E+00 -3.79464535E+00 -4.43654523E+00 -2.22305670E+00 -3.79464535E+00
 -4.43654523E+00 -2.22305670E+00  6.48627511E-01 -5.07634915E+00 -1.49299802E+00
  6.48627511E-01 -5.07634915E+00 -1.49299802E+00  6.48627511E-01 -5.07634915E+00
 -1.49299802E+00  1.85558260E+00 -2.38426892E+00  2.61844853E+00  1.85558260E+00
 -2.38426892E+00  2.61844853E+00  1.85558260E+00 -2.38426892E+00  2.61844853E+00
  1.57337562E-01  2.27413381E+00 -1.11486247E+00  1.57337562E-01  2.27413381E+00
 -1.11486247E+00  1.57337562E-01  2.27413381E+00 -1.11486247E+00  1.57337562E-01
  2.27413381E+00 -1.11486247E+00  1.57337562E-01  2.27413381E+00 -1.11486247E+00
  1.57337562E-01  2.27413381E+00 -1.11486247E+00  3.84899343E+00 -1.03663961E+00
 -5.61840016E-01  3.84899343E+00 -1.03663961E+00 -5.61840016E-01  3.84899343E+00
 -1.03663961E+00 -5.61840016E-01  3.84899343E+00 -1.03663961E+00 -5.61840016E-01
  3.84899343E+00 -1.03663961E+00 -5.61840016E-01  3.84899343E+00 -1.03663961E+00
 -5.61840016E-01  3.86108240E+00 -1.30188748E+00 -2.65527193E+00  3.86108240E+00
 -1.30188748E+00 -2.65527193E+00  3.86108240E+00 -1.30188748E+00 -2.65527193E+00
  5.69113516E+00 -3.27977951E-01  5.50308263E-01  5.69113516E+00 -3.27977951E-01
  5.50308263E-01  5.69113516E+00 -3.27977951E-01  5.50308263E-01  5.69113516E+00
 -3.27977951E-01  5.50308263E-01  5.69113516E+00 -3.27977951E-01  5.50308263E-01
  5.69113516E+00 -3.27977951E-01  5.50308263E-01 -5.24997181E-01  4.82436693E+00
 -9.75028526E-01 -5.24997181E-01  4.82436693E+00 -9.75028526E-01 -5.24997181E-01
  4.82436693E+00 -9.75028526E-01 -5.24997181E-01  4.82436693E+00 -9.75028526E-01
 -5.24997181E-01  4.82436693E+00 -9.75028526E-01 -5.24997181E-01  4.82436693E+00
 -9.75028526E-01 -4.70751852E-02  5.70110430E+00 -2.79161205E+00 -4.70751852E-02
  5.70110430E+00 -2.79161205E+00 -4.70751852E-02  5.70110430E+00 -2.79161205E+00
 -2.56903015E+00  5.08140404E+00 -6.39466243E-01 -2.56903015E+00  5.08140404E+00
 -6.39466243E-01 -2.56903015E+00  5.08140404E+00 -6.39466243E-01  5.21259046E-01
  5.80958220E+00  5.40573239E-01  5.21259046E-01  5.80958220E+00  5.40573239E-01
  5.21259046E-01  5.80958220E+00  5.40573239E-01
Num ILSW                                   I              100
ILSW                                       I   N=         100
           0           0           0           0           2           0
           0           0           0           0        4336          -1
           5           0           0           0           0           0
           0           0           1           0           0           0
           1           0           0           0           0           0
           0           0      100000           0          -1           0
           0           0           0           0           0           0
           0           0           0           1           0           0
           0 -2000000000           1           0           0           0
           0           0         131          52           0           0
           0           0          55           0           0           0
           0           0           0           0           0           1
           0           0           0           0           0           0
           0           0           0           0           0           0
           0           0           0           0           0           0
           0           0           0           0           0           0
           0           0           0           0
Num RLSW                                   I               52
RLSW                                       R   N=          52
  1.00000000E+00  1.00000000E+00  1.00000000E+00  1.00000000E+00  5.40000000E-01
  0.00000000E+00  0.00000000E+00  1.00000000E+00  0.00000000E+00  0.00000000E+00
  0.00000000E+00  0.00000000E+00  1.00000000E+00  0.00000000E+00  0.00000000E+00
  0.00000000E+00  0.00000000E+00  1.00000000E+00  0.00000000E+00  0.00000000E+00
  0.00000000E+00  0.00000000E+00  1.00000000E+00  0.00000000E+00  0.00000000E+00
  0.00000000E+00  0.00000000E+00  1.00000000E+00  0.00000000E+00  0.00000000E+00
  0.00000000E+00  0.00000000E+00  1.00000000E+00  0.00000000E+00  0.00000000E+00
  0.00000000E+00  0.00000000E+00  0.00000000E+00  1.00000000E+00  1.00000000E+00
  0.00000000E+00  1.00000000E+00  0.00000000E+00  0.00000000E+00  0.00000000E+00
  0.00000000E+00  0.00000000E+00  0.00000000E+00  0.00000000E+00  0.00000000E+00
  0.00000000E+00  0.00000000E+00
ECP-MxAtEC                                 I           250000
ECP-MaxLECP                                I               10
ECP-MaxAtL                                 I          2250000
ECP-MxTECP                                 I         11250000
ECP-LenNCZ                                 I                0
ECP-KFirst                                 I   N=         220
           0           0           0           0           0           0
           0           0           0           0           0           0
           0           0           0           0           0           0
           0           0           0           0           0           0
           0           0           0           0           0           0
           0           0           0           0           0           0
           0           0           0           0           0           0
           0           0           0           0           0           0
           0           0           0           0           0           0
           0           0           0           0           0           0
           0           0           0           0           0           0
           0           0           0           0           0           0
           0           0           0           0           0           0
           0           0           0           0           0           0
           0           0           0           0           0           0
           0           0           0           0           0           0
           0           0           0           0           0           0
           0           0           0           0           0           0
           0           0           0           0           0           0
           0           0           0           0           0           0
           0           0           0           0           0           0
           0           0           0           0           0           0
           0           0           0           0           0           0
           0           0           0           0           0           0
           0           0           0           0           0           0
           0           0           0           0           0           0
           0           0           0           0           0           0
           0           0           0           0           0           0
           0           0           0           0           0           0
           0           0           0           0           0           0
           0           0           0           0           0           0
           0           0           0           0           0           0
           0           0           0           0           0           0
           0           0           0           0           0           0
           0           0           0           0           0           0
           0           0           0           0           0           0
           0           0           0           0
ECP-KLast                                  I   N=         220
           0           0           0           0           0           0
           0           0           0           0           0           0
           0           0           0           0           0           0
           0           0           0           0           0           0
           0           0           0           0           0           0
           0           0           0           0           0           0
           0           0           0           0           0           0
           0           0           0           0           0           0
           0           0           0           0           0           0
           0           0           0           0           0           0
           0           0           0           0           0           0
           0           0           0           0           0           0
           0           0           0           0           0           0
           0           0           0           0           0           0
           0           0           0           0           0           0