 Entering Gaussian System, Link 0=g16
 Initial command:
 /opt/software/g16/l1.exe "/tmp/DA_P-20196.tmp/Gau-123871.inp" -scrdir="/tmp/DA_P-20196.tmp/"
 Entering Link 1 = /opt/software/g16/l1.exe PID=    123872.
  
 Copyright (c) 1988-2017, Gaussian, Inc.  All Rights Reserved.
  
 This is part of the Gaussian(R) 16 program.  It is based on
 the Gaussian(R) 09 system (copyright 2009, Gaussian, Inc.),
 the Gaussian(R) 03 system (copyright 2003, Gaussian, Inc.),
 the Gaussian(R) 98 system (copyright 1998, Gaussian, Inc.),
 the Gaussian(R) 94 system (copyright 1995, Gaussian, Inc.),
 the Gaussian 92(TM) system (copyright 1992, Gaussian, Inc.),
 the Gaussian 90(TM) system (copyright 1990, Gaussian, Inc.),
 the Gaussian 88(TM) system (copyright 1988, Gaussian, Inc.),
 the Gaussian 86(TM) system (copyright 1986, Carnegie Mellon
 University), and the Gaussian 82(TM) system (copyright 1983,
 Carnegie Mellon University). Gaussian is a federally registered
 trademark of Gaussian, Inc.
  
 This software contains proprietary and confidential information,
 including trade secrets, belonging to Gaussian, Inc.
  
 This software is provided under written license and may be
 used, copied, transmitted, or stored only in accord with that
 written license.
  
 The following legend is applicable only to US Government
 contracts under FAR:
  
                    RESTRICTED RIGHTS LEGEND
  
 Use, reproduction and disclosure by the US Government is
 subject to restrictions as set forth in subparagraphs (a)
 and (c) of the Commercial Computer Software - Restricted
 Rights clause in FAR 52.227-19.
  
 Gaussian, Inc.
 340 Quinnipiac St., Bldg. 40, Wallingford CT 06492
  
  
 ---------------------------------------------------------------
 Warning -- This program may not be used in any manner that
 competes with the business of Gaussian, Inc. or will provide
 assistance to any competitor of Gaussian, Inc.  The licensee
 of this program is prohibited from giving any competitor of
 Gaussian, Inc. access to this program.  By using this program,
 the user acknowledges that Gaussian, Inc. is engaged in the
 business of creating and licensing software in the field of
 computational chemistry and represents and warrants to the
 licensee that it is not a competitor of Gaussian, Inc. and that
 it will not use this program in any manner prohibited above.
 ---------------------------------------------------------------
  

 Cite this work as:
 Gaussian 16, Revision B.01,
 M. J. Frisch, G. W. Trucks, H. B. Schlegel, G. E. Scuseria, 
 M. A. Robb, J. R. Cheeseman, G. Scalmani, V. Barone, 
 G. A. Petersson, H. Nakatsuji, X. Li, M. Caricato, A. V. Marenich, 
 J. Bloino, B. G. Janesko, R. Gomperts, B. Mennucci, H. P. Hratchian, 
 J. V. Ortiz, A. F. Izmaylov, J. L. Sonnenberg, D. Williams-Young, 
 F. Ding, F. Lipparini, F. Egidi, J. Goings, B. Peng, A. Petrone, 
 T. Henderson, D. Ranasinghe, V. G. Zakrzewski, J. Gao, N. Rega, 
 G. Zheng, W. Liang, M. Hada, M. Ehara, K. Toyota, R. Fukuda, 
 J. Hasegawa, M. Ishida, T. Nakajima, Y. Honda, O. Kitao, H. Nakai, 
 T. Vreven, K. Throssell, J. A. Montgomery, Jr., J. E. Peralta, 
 F. Ogliaro, M. J. Bearpark, J. J. Heyd, E. N. Brothers, K. N. Kudin, 
 V. N. Staroverov, T. A. Keith, R. Kobayashi, J. Normand, 
 K. Raghavachari, A. P. Rendell, J. C. Burant, S. S. Iyengar, 
 J. Tomasi, M. Cossi, J. M. Millam, M. Klene, C. Adamo, R. Cammi, 
 J. W. Ochterski, R. L. Martin, K. Morokuma, O. Farkas, 
 J. B. Foresman, and D. J. Fox, Gaussian, Inc., Wallingford CT, 2016.
 
 ******************************************
 Gaussian 16:  ES64L-G16RevB.01 20-Dec-2017
                22-Jan-2021 
 ******************************************
 %nproc=28
 Will use up to   28 processors via shared memory.
 %chk=DA_P
 -----------------------------------
 # M062X/Def2SVP EM=GD3 POP=NBO6Read
 -----------------------------------
 1/38=1,163=2,172=1/1;
 2/12=2,17=6,18=5,40=1/2;
 3/5=43,7=101,11=2,25=1,30=1,74=-55,124=31/1,2,3;
 4//1;
 5/5=2,38=5/2;
 6/7=2,8=2,9=2,10=2,28=1,40=2,113=1,114=1,124=2103/1,12;
 99/5=1,9=1/99;
 -------
 Product
 -------
 Symbolic Z-matrix:
 Charge =  0 Multiplicity = 1
 6                    -0.17742   0.81855  -1.68094 
 6                    -0.11807   0.82091  -0.15476 
 1                     0.33142   1.7027   -2.09271 
 1                    -1.23463   0.8912   -1.98118 
 1                    -0.51049   1.77261   0.25183 
 6                     0.43654  -0.46903  -2.22705 
 6                    -0.09328  -1.68101  -1.51125 
 6                    -0.72186  -1.61735  -0.33523 
 6                    -0.95839  -0.33063   0.41264 
 1                     0.24716  -0.55699  -3.30751 
 1                     1.53366  -0.44011  -2.10806 
 1                     0.06088  -2.65603  -1.98172 
 1                    -1.08887  -2.53783   0.12932 
 1                    -2.02096  -0.03829   0.36278 
 8                     1.1963    0.62113   0.32025 
 6                    -0.63073  -0.45194   1.89566 
 1                     0.10638  -1.24517   2.16844 
 8                    -1.11318   0.26569   2.72603 
 6                     2.06139   1.70319   0.12577 
 1                     2.98753   1.48969   0.67348 
 1                     2.31402   1.85255  -0.93907 
 1                     1.62661   2.6413    0.51626 
 
                          Input orientation:                          
 ---------------------------------------------------------------------
 Center     Atomic      Atomic             Coordinates (Angstroms)
 Number     Number       Type             X           Y           Z
 ---------------------------------------------------------------------
      1          6           0       -0.177418    0.818552   -1.680938
      2          6           0       -0.118067    0.820905   -0.154758
      3          1           0        0.331423    1.702695   -2.092705
      4          1           0       -1.234625    0.891203   -1.981181
      5          1           0       -0.510485    1.772609    0.251826
      6          6           0        0.436544   -0.469033   -2.227046
      7          6           0       -0.093282   -1.681006   -1.511251
      8          6           0       -0.721863   -1.617349   -0.335227
      9          6           0       -0.958393   -0.330627    0.412641
     10          1           0        0.247159   -0.556987   -3.307512
     11          1           0        1.533660   -0.440113   -2.108061
     12          1           0        0.060877   -2.656027   -1.981724
     13          1           0       -1.088872   -2.537827    0.129318
     14          1           0       -2.020958   -0.038289    0.362779
     15          8           0        1.196295    0.621131    0.320249
     16          6           0       -0.630727   -0.451938    1.895663
     17          1           0        0.106380   -1.245174    2.168437
     18          8           0       -1.113183    0.265688    2.726032
     19          6           0        2.061394    1.703189    0.125765
     20          1           0        2.987528    1.489693    0.673481
     21          1           0        2.314022    1.852550   -0.939074
     22          1           0        1.626607    2.641303    0.516258
 ---------------------------------------------------------------------
                    Distance matrix (angstroms):
                    1          2          3          4          5
     1  C    0.000000
     2  C    1.527335   0.000000
     3  H    1.100082   2.176059   0.000000
     4  H    1.101413   2.141837   1.767332   0.000000
     5  H    2.180994   1.106817   2.492092   2.507504   0.000000
     6  C    1.527435   2.503180   2.178417   2.168755   3.473705
     7  C    2.506724   2.846093   3.459465   2.853026   3.899994
     8  C    2.835661   2.518377   3.901389   3.043834   3.446901
     9  C    2.512689   1.534313   3.474879   2.701769   2.156406
    10  H    2.172122   3.460034   2.566908   2.460100   4.320871
    11  H    2.166670   2.851975   2.457079   3.074395   3.826713
    12  H    3.495705   3.931778   4.368520   3.776396   4.992797
    13  H    3.920849   3.507740   4.993661   4.029106   4.350793
    14  H    2.882637   2.151059   3.820226   2.641292   2.360761
    15  O    2.435326   1.411768   2.782109   3.358406   2.060020
    16  C    3.822526   2.467220   4.634140   4.147124   2.768622
    17  H    4.376893   3.117097   5.186319   4.856102   3.627800
    18  O    4.539020   3.097979   5.231835   4.750144   2.959012
    19  C    3.009824   2.367946   2.813256   3.995283   2.575902
    20  H    4.001325   3.282983   3.840840   5.023146   3.534675
    21  H    2.797640   2.755812   2.298700   3.821396   3.066345
    22  H    3.377069   2.609214   3.060257   4.181710   2.322007
                    6          7          8          9         10
     6  C    0.000000
     7  C    1.503980   0.000000
     8  C    2.497902   1.334990   0.000000
     9  C    2.988805   2.504656   1.506953   0.000000
    10  H    1.100459   2.146130   3.301189   3.917159   0.000000
    11  H    1.103928   2.131417   3.101001   3.546301   1.762790
    12  H    2.232544   1.093515   2.098210   3.489897   2.489655
    13  H    3.487012   2.101620   1.094430   2.229132   4.185750
    14  H    3.596116   3.150626   2.160623   1.103174   4.345623
    15  O    2.873046   3.212045   3.019896   2.357342   3.930582
    16  C    4.258649   3.661491   2.518603   1.523626   5.277760
    17  H    4.475676   3.710784   2.663238   2.247878   5.520819
    18  O    5.241608   4.773299   3.615282   2.394020   6.239469
    19  C    3.590878   4.333039   4.357179   3.652098   4.493021
    20  H    4.330956   4.931306   4.942751   4.353377   5.248507
    21  H    3.251699   4.313759   4.649885   4.159579   3.960718
    22  H    4.314644   5.074561   4.937252   3.940219   5.172345
                   11         12         13         14         15
    11  H    0.000000
    12  H    2.663705   0.000000
    13  H    4.035337   2.406739   0.000000
    14  H    4.347623   4.084518   2.677868   0.000000
    15  O    2.671468   4.162694   3.903519   3.284412   0.000000
    16  C    4.551320   4.513364   2.771426   2.110351   2.640344
    17  H    4.579704   4.383653   2.693991   3.040154   2.843731
    18  O    5.556293   5.663727   3.821415   2.549789   3.353777
    19  C    3.140418   5.238926   5.283030   4.444606   1.398953
    20  H    3.684408   5.727337   5.756220   5.245588   2.021803
    21  H    2.689200   5.146945   5.656550   4.905318   2.086049
    22  H    4.048557   6.062436   5.860626   4.528631   2.074773
                   16         17         18         19         20
    16  C    0.000000
    17  H    1.116672   0.000000
    18  O    1.198859   2.020136   0.000000
    19  C    3.876161   4.085025   4.348073   0.000000
    20  H    4.284324   4.244456   4.746260   1.096949   0.000000
    21  H    4.692328   4.911843   5.262781   1.104541   1.784827
    22  H    4.070191   4.488373   4.246539   1.105252   1.789701
                   21         22
    21  H    0.000000
    22  H    1.792390   0.000000
 Stoichiometry    C8H12O2
 Framework group  C1[X(C8H12O2)]
 Deg. of freedom    60
 Full point group                 C1      NOp   1
 Largest Abelian subgroup         C1      NOp   1
 Largest concise Abelian subgroup C1      NOp   1
                         Standard orientation:                         
 ---------------------------------------------------------------------
 Center     Atomic      Atomic             Coordinates (Angstroms)
 Number     Number       Type             X           Y           Z
 ---------------------------------------------------------------------
      1          6           0       -1.438325    0.271513    1.067491
      2          6           0        0.007623    0.502202    0.633012
      3          1           0       -1.920326    1.222038    1.340177
      4          1           0       -1.426201   -0.351241    1.975864
      5          1           0        0.565701    1.061971    1.407770
      6          6           0       -2.212759   -0.434894   -0.043499
      7          6           0       -1.453856   -1.616940   -0.580892
      8          6           0       -0.147467   -1.800030   -0.375896
      9          6           0        0.714807   -0.839676    0.401992
     10          1           0       -3.200596   -0.755371    0.320481
     11          1           0       -2.403429    0.268874   -0.872361
     12          1           0       -2.008040   -2.347719   -1.176391
     13          1           0        0.343239   -2.686288   -0.790061
     14          1           0        0.981932   -1.261701    1.385623
     15          8           0        0.083259    1.203420   -0.589960
     16          6           0        2.036800   -0.548566   -0.297313
     17          1           0        2.043197   -0.688929   -1.405109
     18          8           0        3.011619   -0.173558    0.291211
     19          6           0       -0.277817    2.552945   -0.515963
     20          1           0       -0.024911    3.016894   -1.477257
     21          1           0       -1.359472    2.688963   -0.338391
     22          1           0        0.275838    3.074299    0.286059
 ---------------------------------------------------------------------
 Rotational constants (GHZ):           1.7494051           1.2677909           0.8729453
 Standard basis: def2SVP (5D, 7F)
 There are   210 symmetry adapted cartesian basis functions of A   symmetry.
 There are   200 symmetry adapted basis functions of A   symmetry.
   200 basis functions,   334 primitive gaussians,   210 cartesian basis functions
    38 alpha electrons       38 beta electrons
       nuclear repulsion energy       554.4291064379 Hartrees.
 NAtoms=   22 NActive=   22 NUniq=   22 SFac= 1.00D+00 NAtFMM=   60 NAOKFM=F Big=F
 Integral buffers will be    131072 words long.
 Raffenetti 2 integral format.
 Two-electron integral symmetry is turned on.
 Nuclear repulsion after empirical dispersion term =      554.4282941369 Hartrees.
 One-electron integrals computed using PRISM.
   1 Symmetry operations used in ECPInt.
 ECPInt:  NShTT=    4656 NPrTT=   16456 LenC2=    4610 LenP2D=   13028.
 LDataN:  DoStor=T MaxTD1= 4 Len=   56
 NBasis=   200 RedAO= T EigKep=  7.86D-04  NBF=   200
 NBsUse=   200 1.00D-06 EigRej= -1.00D+00 NBFU=   200
 ExpMin= 1.22D-01 ExpMax= 2.27D+03 ExpMxC= 3.41D+02 IAcc=3 IRadAn=         5 AccDes= 0.00D+00
 Harris functional with IExCor= 1009 and IRadAn=       5 diagonalized for initial guess.
 HarFok:  IExCor= 1009 AccDes= 0.00D+00 IRadAn=         5 IDoV= 1 UseB2=F ITyADJ=14
 ICtDFT=  3500011 ScaDFX=  1.000000  1.000000  1.000000  1.000000
 FoFCou: FMM=F IPFlag=           0 FMFlag=      100000 FMFlg1=           0
         NFxFlg=           0 DoJE=T BraDBF=F KetDBF=T FulRan=T
         wScrn=  0.000000 ICntrl=       500 IOpCl=  0 I1Cent=   200000004 NGrid=           0
         NMat0=    1 NMatS0=      1 NMatT0=    0 NMatD0=    1 NMtDS0=    0 NMtDT0=    0
 Petite list used in FoFCou.
 Requested convergence on RMS density matrix=1.00D-08 within 128 cycles.
 Requested convergence on MAX density matrix=1.00D-06.
 Requested convergence on             energy=1.00D-06.
 No special actions if energy rises.
 Integral accuracy reduced to 1.0D-05 until final iterations.
 Initial convergence to 1.0D-05 achieved.  Increase integral accuracy.
 SCF Done:  E(RM062X) =  -461.931559654     A.U. after   15 cycles
            NFock= 15  Conv=0.61D-08     -V/T= 2.0100

 **********************************************************************

            Population analysis using the SCF Density.

 **********************************************************************

 Orbital symmetries:
       Occupied  (A) (A) (A) (A) (A) (A) (A) (A) (A) (A) (A) (A)
                 (A) (A) (A) (A) (A) (A) (A) (A) (A) (A) (A) (A)
                 (A) (A) (A) (A) (A) (A) (A) (A) (A) (A) (A) (A)
                 (A) (A)
       Virtual   (A) (A) (A) (A) (A) (A) (A) (A) (A) (A) (A) (A)
                 (A) (A) (A) (A) (A) (A) (A) (A) (A) (A) (A) (A)
                 (A) (A) (A) (A) (A) (A) (A) (A) (A) (A) (A) (A)
                 (A) (A) (A) (A) (A) (A) (A) (A) (A) (A) (A) (A)
                 (A) (A) (A) (A) (A) (A) (A) (A) (A) (A) (A) (A)
                 (A) (A) (A) (A) (A) (A) (A) (A) (A) (A) (A) (A)
                 (A) (A) (A) (A) (A) (A) (A) (A) (A) (A) (A) (A)
                 (A) (A) (A) (A) (A) (A) (A) (A) (A) (A) (A) (A)
                 (A) (A) (A) (A) (A) (A) (A) (A) (A) (A) (A) (A)
                 (A) (A) (A) (A) (A) (A) (A) (A) (A) (A) (A) (A)
                 (A) (A) (A) (A) (A) (A) (A) (A) (A) (A) (A) (A)
                 (A) (A) (A) (A) (A) (A) (A) (A) (A) (A) (A) (A)
                 (A) (A) (A) (A) (A) (A) (A) (A) (A) (A) (A) (A)
                 (A) (A) (A) (A) (A) (A)
 The electronic state is 1-A.
 Alpha  occ. eigenvalues --  -19.63934 -19.62738 -10.63678 -10.61285 -10.60205
 Alpha  occ. eigenvalues --  -10.56343 -10.55881 -10.55788 -10.55746 -10.55580
 Alpha  occ. eigenvalues --   -1.16047  -1.15180  -0.93845  -0.85766  -0.83924
 Alpha  occ. eigenvalues --   -0.77233  -0.72939  -0.68062  -0.64602  -0.60660
 Alpha  occ. eigenvalues --   -0.59098  -0.55950  -0.55366  -0.52888  -0.52291
 Alpha  occ. eigenvalues --   -0.50835  -0.48836  -0.48279  -0.46220  -0.45983
 Alpha  occ. eigenvalues --   -0.43883  -0.43513  -0.40673  -0.39639  -0.36849
 Alpha  occ. eigenvalues --   -0.34037  -0.31825  -0.30482
 Alpha virt. eigenvalues --    0.02889   0.04719   0.08473   0.11327   0.12199
 Alpha virt. eigenvalues --    0.13489   0.14995   0.15471   0.16052   0.16675
 Alpha virt. eigenvalues --    0.18284   0.18778   0.19493   0.21121   0.21497
 Alpha virt. eigenvalues --    0.24458   0.25332   0.26879   0.27709   0.29414
 Alpha virt. eigenvalues --    0.31514   0.33984   0.36678   0.43085   0.45407
 Alpha virt. eigenvalues --    0.46862   0.48900   0.49576   0.51078   0.52793
 Alpha virt. eigenvalues --    0.53427   0.54969   0.57233   0.58878   0.59968
 Alpha virt. eigenvalues --    0.62449   0.64888   0.65510   0.66646   0.67721
 Alpha virt. eigenvalues --    0.68001   0.68566   0.69302   0.69889   0.70483
 Alpha virt. eigenvalues --    0.71125   0.71581   0.72631   0.73145   0.73431
 Alpha virt. eigenvalues --    0.74334   0.74988   0.75749   0.76320   0.76540
 Alpha virt. eigenvalues --    0.77601   0.79981   0.80618   0.84318   0.87010
 Alpha virt. eigenvalues --    0.90665   0.93755   0.94183   1.02445   1.03368
 Alpha virt. eigenvalues --    1.07419   1.09438   1.13229   1.14835   1.20235
 Alpha virt. eigenvalues --    1.21616   1.23432   1.26443   1.27691   1.29124
 Alpha virt. eigenvalues --    1.32346   1.36131   1.40989   1.43474   1.45093
 Alpha virt. eigenvalues --    1.52874   1.56494   1.57907   1.59877   1.60898
 Alpha virt. eigenvalues --    1.62440   1.67195   1.68491   1.70415   1.71585
 Alpha virt. eigenvalues --    1.73825   1.74301   1.75666   1.79469   1.80870
 Alpha virt. eigenvalues --    1.81567   1.81977   1.82811   1.85085   1.86447
 Alpha virt. eigenvalues --    1.87379   1.88502   1.89525   1.90480   1.91537
 Alpha virt. eigenvalues --    1.93117   1.94235   1.94993   1.95952   1.97535
 Alpha virt. eigenvalues --    2.00224   2.02449   2.03459   2.05522   2.07226
 Alpha virt. eigenvalues --    2.08301   2.10273   2.14547   2.15425   2.17774
 Alpha virt. eigenvalues --    2.19748   2.23057   2.24516   2.25683   2.30516
 Alpha virt. eigenvalues --    2.35017   2.37630   2.39068   2.41156   2.43420
 Alpha virt. eigenvalues --    2.44459   2.50879   2.52691   2.57687   2.60238
 Alpha virt. eigenvalues --    2.62427   2.63609   2.66992   2.70259   2.72461
 Alpha virt. eigenvalues --    2.74779   2.78221   2.81710   2.83189   2.84350
 Alpha virt. eigenvalues --    2.88053   2.89326   2.91379   2.94074   2.98254
 Alpha virt. eigenvalues --    2.98807   3.02834   3.04362   3.10104   3.15794
 Alpha virt. eigenvalues --    3.17176   3.22751   3.30266   3.39627   3.47350
 Alpha virt. eigenvalues --    3.57377   3.67625
          Condensed to atoms (all electrons):
               1          2          3          4          5          6
     1  C    4.891989   0.346471   0.369851   0.373013  -0.060823   0.308660
     2  C    0.346471   4.800840  -0.016016  -0.026778   0.396297  -0.020899
     3  H    0.369851  -0.016016   0.656640  -0.024841  -0.006417  -0.019186
     4  H    0.373013  -0.026778  -0.024841   0.657483  -0.002010  -0.018251
     5  H   -0.060823   0.396297  -0.006417  -0.002010   0.686412   0.012686
     6  C    0.308660  -0.020899  -0.019186  -0.018251   0.012686   4.792449
     7  C   -0.018610  -0.030448   0.006606  -0.004544  -0.001673   0.302141
     8  C   -0.066510   0.005633   0.001148  -0.002445   0.014902   0.001944
     9  C   -0.019330   0.237461   0.008002   0.001886  -0.039032  -0.091626
    10  H   -0.028923   0.008998  -0.002274  -0.008809  -0.000219   0.380328
    11  H   -0.006191  -0.016781  -0.009955   0.007770   0.000290   0.358792
    12  H    0.008122  -0.000785  -0.000339   0.000095   0.000036  -0.056974
    13  H   -0.000340   0.007593   0.000049  -0.000123  -0.000267   0.011285
    14  H   -0.010092   0.015305  -0.000030   0.001222  -0.005204   0.002326
    15  O   -0.077453   0.303601  -0.003258   0.004809  -0.034732   0.017708
    16  C    0.015506  -0.049582  -0.000395   0.000208  -0.006458  -0.000381
    17  H   -0.000714   0.000993   0.000020  -0.000023   0.001111   0.000194
    18  O   -0.000168   0.000497  -0.000001  -0.000024   0.007654   0.000006
    19  C   -0.000580  -0.054021   0.001969   0.000147  -0.006337  -0.003799
    20  H    0.000078   0.006431  -0.000122   0.000011   0.000210  -0.000035
    21  H    0.016986  -0.009103  -0.000758  -0.000627  -0.003321  -0.004312
    22  H   -0.009271   0.000302   0.000817   0.000200   0.012656   0.001267
               7          8          9         10         11         12
     1  C   -0.018610  -0.066510  -0.019330  -0.028923  -0.006191   0.008122
     2  C   -0.030448   0.005633   0.237461   0.008998  -0.016781  -0.000785
     3  H    0.006606   0.001148   0.008002  -0.002274  -0.009955  -0.000339
     4  H   -0.004544  -0.002445   0.001886  -0.008809   0.007770   0.000095
     5  H   -0.001673   0.014902  -0.039032  -0.000219   0.000290   0.000036
     6  C    0.302141   0.001944  -0.091626   0.380328   0.358792  -0.056974
     7  C    4.854230   0.626695   0.025953  -0.019560  -0.012116   0.412202
     8  C    0.626695   5.028074   0.035068   0.005550  -0.006574  -0.034290
     9  C    0.025953   0.035068   5.943069   0.000668   0.002760   0.011521
    10  H   -0.019560   0.005550   0.000668   0.649874  -0.023737  -0.005957
    11  H   -0.012116  -0.006574   0.002760  -0.023737   0.641323   0.001096
    12  H    0.412202  -0.034290   0.011521  -0.005957   0.001096   0.652701
    13  H   -0.031408   0.424977  -0.080725  -0.000298  -0.000375  -0.015601
    14  H   -0.005453  -0.001261   0.280186   0.000125  -0.000201  -0.000304
    15  O   -0.014581   0.012734  -0.116011   0.000170   0.009608  -0.000114
    16  C    0.001609  -0.020597   0.123033  -0.000006   0.000134  -0.000138
    17  H    0.000501   0.023984  -0.154938   0.000004  -0.000069  -0.000020
    18  O   -0.000161   0.006234  -0.106373  -0.000000  -0.000000   0.000002
    19  C    0.000362  -0.000958   0.011968  -0.000082   0.001310  -0.000000
    20  H    0.000026   0.000043  -0.000165   0.000000  -0.000164  -0.000001
    21  H    0.000612  -0.000313  -0.001220  -0.000088  -0.000118   0.000014
    22  H   -0.000161   0.000177   0.001147   0.000001   0.000298  -0.000000
              13         14         15         16         17         18
     1  C   -0.000340  -0.010092  -0.077453   0.015506  -0.000714  -0.000168
     2  C    0.007593   0.015305   0.303601  -0.049582   0.000993   0.000497
     3  H    0.000049  -0.000030  -0.003258  -0.000395   0.000020  -0.000001
     4  H   -0.000123   0.001222   0.004809   0.000208  -0.000023  -0.000024
     5  H   -0.000267  -0.005204  -0.034732  -0.006458   0.001111   0.007654
     6  C    0.011285   0.002326   0.017708  -0.000381   0.000194   0.000006
     7  C   -0.031408  -0.005453  -0.014581   0.001609   0.000501  -0.000161
     8  C    0.424977  -0.001261   0.012734  -0.020597   0.023984   0.006234
     9  C   -0.080725   0.280186  -0.116011   0.123033  -0.154938  -0.106373
    10  H   -0.000298   0.000125   0.000170  -0.000006   0.000004  -0.000000
    11  H   -0.000375  -0.000201   0.009608   0.000134  -0.000069  -0.000000
    12  H   -0.015601  -0.000304  -0.000114  -0.000138  -0.000020   0.000002
    13  H    0.659014   0.000039  -0.000124  -0.001194   0.001452   0.000283
    14  H    0.000039   0.632872   0.003704   0.009636   0.009255   0.006537
    15  O   -0.000124   0.003704   8.070143   0.034055   0.001205  -0.001515
    16  C   -0.001194   0.009636   0.034055   4.622106   0.431049   0.667359
    17  H    0.001452   0.009255   0.001205   0.431049   0.697705  -0.040070
    18  O    0.000283   0.006537  -0.001515   0.667359  -0.040070   7.683536
    19  C    0.000025  -0.000177   0.307626  -0.000692   0.000047  -0.000028
    20  H   -0.000001   0.000011  -0.024455  -0.000350   0.000033   0.000016
    21  H   -0.000003   0.000030  -0.037795   0.000517  -0.000002  -0.000007
    22  H   -0.000000  -0.000068  -0.034480  -0.000841  -0.000045   0.000026
              19         20         21         22
     1  C   -0.000580   0.000078   0.016986  -0.009271
     2  C   -0.054021   0.006431  -0.009103   0.000302
     3  H    0.001969  -0.000122  -0.000758   0.000817
     4  H    0.000147   0.000011  -0.000627   0.000200
     5  H   -0.006337   0.000210  -0.003321   0.012656
     6  C   -0.003799  -0.000035  -0.004312   0.001267
     7  C    0.000362   0.000026   0.000612  -0.000161
     8  C   -0.000958   0.000043  -0.000313   0.000177
     9  C    0.011968  -0.000165  -0.001220   0.001147
    10  H   -0.000082   0.000000  -0.000088   0.000001
    11  H    0.001310  -0.000164  -0.000118   0.000298
    12  H   -0.000000  -0.000001   0.000014  -0.000000
    13  H    0.000025  -0.000001  -0.000003  -0.000000
    14  H   -0.000177   0.000011   0.000030  -0.000068
    15  O    0.307626  -0.024455  -0.037795  -0.034480
    16  C   -0.000692  -0.000350   0.000517  -0.000841
    17  H    0.000047   0.000033  -0.000002  -0.000045
    18  O   -0.000028   0.000016  -0.000007   0.000026
    19  C    4.417866   0.401934   0.396601   0.398732
    20  H    0.401934   0.610274  -0.027888  -0.022803
    21  H    0.396601  -0.027888   0.688191  -0.045962
    22  H    0.398732  -0.022803  -0.045962   0.666448
 Mulliken charges:
               1
     1  C   -0.031670
     2  C    0.093991
     3  H    0.038489
     4  H    0.041631
     5  H    0.034240
     6  C    0.025676
     7  C   -0.092222
     8  C   -0.054215
     9  C   -0.073302
    10  H    0.044236
    11  H    0.052899
    12  H    0.028735
    13  H    0.025741
    14  H    0.061541
    15  O   -0.420844
    16  C    0.175422
    17  H    0.028327
    18  O   -0.223803
    19  C    0.128085
    20  H    0.056917
    21  H    0.028564
    22  H    0.031560
 Sum of Mulliken charges =  -0.00000
 Mulliken charges with hydrogens summed into heavy atoms:
               1
     1  C    0.048449
     2  C    0.128231
     6  C    0.122812
     7  C   -0.063487
     8  C   -0.028474
     9  C   -0.011760
    15  O   -0.420844
    16  C    0.203750
    18  O   -0.223803
    19  C    0.245126
 Electronic spatial extent (au):  <R**2>=           1434.6494
 Charge=              0.0000 electrons
 Dipole moment (field-independent basis, Debye):
    X=             -3.1155    Y=              0.3452    Z=              0.1527  Tot=              3.1382
 Quadrupole moment (field-independent basis, Debye-Ang):
   XX=            -68.6179   YY=            -54.7408   ZZ=            -59.9608
   XY=             -1.8982   XZ=             -1.9053   YZ=              0.8997
 Traceless Quadrupole moment (field-independent basis, Debye-Ang):
   XX=             -7.5114   YY=              6.3657   ZZ=              1.1457
   XY=             -1.8982   XZ=             -1.9053   YZ=              0.8997
 Octapole moment (field-independent basis, Debye-Ang**2):
  XXX=            -33.3014  YYY=             18.1219  ZZZ=              0.0910  XYY=              5.2028
  XXY=             -1.5379  XXZ=             -8.7463  XZZ=              4.6932  YZZ=              2.4871
  YYZ=             -6.6785  XYZ=             -0.1331
 Hexadecapole moment (field-independent basis, Debye-Ang**3):
 XXXX=          -1044.6963 YYYY=           -687.8108 ZZZZ=           -224.6387 XXXY=              2.0567
 XXXZ=            -15.2682 YYYX=             -8.8739 YYYZ=             -2.3358 ZZZX=              1.5736
 ZZZY=            -10.3455 XXYY=           -265.2740 XXZZ=           -189.4223 YYZZ=           -150.1709
 XXYZ=              4.2049 YYXZ=              6.3427 ZZXY=             -0.3701
 N-N= 5.544282941369D+02 E-N=-2.183487762836D+03  KE= 4.573461158550D+02
 Running external command "gaunbo6 R"
         input file       "/tmp/DA_P-20196.tmp/Gau-123872.EIn"
         output file      "/tmp/DA_P-20196.tmp/Gau-123872.EOu"
         message file     "/tmp/DA_P-20196.tmp/Gau-123872.EMs"
         fchk file        "/tmp/DA_P-20196.tmp/Gau-123872.EFC"
         mat. el file     "/tmp/DA_P-20196.tmp/Gau-123872.EUF"

 Writing WrtUnf unformatted file "/tmp/DA_P-20196.tmp/Gau-123872.EUF"
 Gaussian matrix elements                                         Version   2 NLab=11 Len12L=8 Len4L=8
 Write SHELL TO ATOM MAP                   from file     0 offset           0 length                  96 to matrix element file.
 Write SHELL TYPES                         from file     0 offset           0 length                  96 to matrix element file.
 Write NUMBER OF PRIMITIVES PER SHELL      from file     0 offset           0 length                  96 to matrix element file.
 Write PRIMITIVE EXPONENTS                 from file     0 offset           0 length                 180 to matrix element file.
 Write CONTRACTION COEFFICIENTS            from file     0 offset           0 length                 180 to matrix element file.
 Write P(S=P) CONTRACTION COEFFICIENTS     from file     0 offset           0 length                 180 to matrix element file.
 Write COORDINATES OF EACH SHELL           from file     0 offset           0 length                 288 to matrix element file.
 Write BONDS PER ATOM                      from file     0 offset           0 length                  22 to matrix element file.
 Write BONDED ATOMS                        from file     0 offset           0 length                  44 to matrix element file.
 Write BOND TYPES                          from file     0 offset           0 length                  44 to matrix element file.
 Write GAUSSIAN SCALARS                    from file   501 offset           0 to matrix element file.
 Write INTEGER ISO                         from file     0 offset           0 length                  22 to matrix element file.
 Write INTEGER SPIN                        from file     0 offset           0 length                  22 to matrix element file.
 Write REAL ZEFFECTIVE                     from file     0 offset           0 length                  22 to matrix element file.
 Write REAL GFACTOR                        from file     0 offset           0 length                  22 to matrix element file.
 Write REAL ZNUCLEAR                       from file     0 offset           0 length                  22 to matrix element file.
 Write MULLIKEN CHARGES                    from file     0 offset           0 length                  22 to matrix element file.
 Write NUCLEAR GRADIENT                    from file 10584 offset           0 length                  66 to matrix element file.
 Array NUCLEAR FORCE CONSTANTS              on  file 10585 does not exist.
 Write ELECTRIC DIPOLE MOMENT              from file     0 offset           0 length                   3 to matrix element file.
 Write NON-ADIABATIC COUPLING              from file 10810 offset           0 length                  66 to matrix element file.
 Write OVERLAP                             from file 10514 offset           0 length               20100 to matrix element file.
 Write CORE HAMILTONIAN ALPHA              from file 10515 offset           0 length               20100 to matrix element file.
 Write CORE HAMILTONIAN BETA               from file 10515 offset       20100 length               20100 to matrix element file.
 Write KINETIC ENERGY                      from file 10516 offset           0 length               20100 to matrix element file.
 Write ORTHOGONAL BASIS                    from file 10685 offset           0 length               40000 to matrix element file.
 Write DIPOLE INTEGRALS                    from file 10518 offset           0 length               60300 to matrix element file.
 Array DIP VEL INTEGRALS                    on  file 10572 does not exist.
 Array R X DEL INTEGRALS                    on  file 10572 does not exist.
 Write ALPHA ORBITAL ENERGIES              from file     0 offset           0 length                 200 to matrix element file.
 Write ALPHA MO COEFFICIENTS               from file 10524 offset           0 length               40000 to matrix element file.
 Write ALPHA DENSITY MATRIX                from file     0 offset           0 length               20100 to matrix element file.
 Write ALPHA SCF DENSITY MATRIX            from file 10528 offset           0 length               20100 to matrix element file.
 Write ALPHA FOCK MATRIX                   from file 10536 offset           0 length               20100 to matrix element file.
 Write ALPHA SCF DENSITY                   from file     0 offset           0 length               20100 to matrix element file.
 No 2e integrals to process.
 Perform NBO analysis...

 *********************************** NBO 7.0 ***********************************
             N A T U R A L   A T O M I C   O R B I T A L   A N D
          N A T U R A L   B O N D   O R B I T A L   A N A L Y S I S
 ***************************** Yang Wang (I101673) *****************************
  (c) Copyright 1996-2019 Board of Regents of the University of Wisconsin System
      on behalf of the Theoretical Chemistry Institute.  All rights reserved.

          Cite this program [NBO 7.0.4 (28-Mar-2019)] as:

          NBO 7.0.  E. D. Glendening, J. K. Badenhoop, A. E. Reed,
          J. E. Carpenter, J. A. Bohmann, C. M. Morales, P. Karafiloglou,
          C. R. Landis, and F. Weinhold, Theoretical Chemistry Institute,
          University of Wisconsin, Madison, WI (2018)

       /NOBOND / : No two-center NBO search
       /MCB    / : Search for 1-center NBOs
       /AONAO  / : Write the AO to NAO transformation to lfn33

 Filename set to /tmp/DA_P-20196.tmp/Gau-123872

 Job title:  Product


 NATURAL POPULATIONS:  Natural atomic orbital occupancies

  NAO Atom No lang   Type(AO)    Occupancy      Energy
 -------------------------------------------------------
   1    C  1  s      Cor( 1s)     1.99995     -10.55684
   2    C  1  s      Val( 2s)     1.00862      -0.15220
   3    C  1  s      Ryd( 3s)     0.00104       0.96719
   4    C  1  px     Val( 2p)     1.08407      -0.07332
   5    C  1  px     Ryd( 3p)     0.00255       0.64175
   6    C  1  py     Val( 2p)     1.20645      -0.09566
   7    C  1  py     Ryd( 3p)     0.00531       0.85596
   8    C  1  pz     Val( 2p)     1.15569      -0.08304
   9    C  1  pz     Ryd( 3p)     0.00189       0.67137
  10    C  1  dxy    Ryd( 3d)     0.00055       2.26211
  11    C  1  dxz    Ryd( 3d)     0.00047       2.20793
  12    C  1  dyz    Ryd( 3d)     0.00080       2.40868
  13    C  1  dx2y2  Ryd( 3d)     0.00068       2.27564
  14    C  1  dz2    Ryd( 3d)     0.00060       2.26874

  15    C  2  s      Cor( 1s)     1.99995     -10.61202
  16    C  2  s      Val( 2s)     0.90830      -0.12581
  17    C  2  s      Ryd( 3s)     0.00278       0.93781
  18    C  2  px     Val( 2p)     1.08025      -0.07950
  19    C  2  px     Ryd( 3p)     0.00379       0.78895
  20    C  2  py     Val( 2p)     0.99383      -0.07271
  21    C  2  py     Ryd( 3p)     0.00260       0.79693
  22    C  2  pz     Val( 2p)     0.86147      -0.03999
  23    C  2  pz     Ryd( 3p)     0.00690       0.83219
  24    C  2  dxy    Ryd( 3d)     0.00101       2.24147
  25    C  2  dxz    Ryd( 3d)     0.00154       2.25552
  26    C  2  dyz    Ryd( 3d)     0.00159       2.33753
  27    C  2  dx2y2  Ryd( 3d)     0.00090       2.21892
  28    C  2  dz2    Ryd( 3d)     0.00147       2.23616

  29    H  3  s      Val( 1s)     0.76457       0.10620
  30    H  3  s      Ryd( 2s)     0.00170       0.40887
  31    H  3  px     Ryd( 2p)     0.00023       1.93781
  32    H  3  py     Ryd( 2p)     0.00074       2.24672
  33    H  3  pz     Ryd( 2p)     0.00011       1.90586

  34    H  4  s      Val( 1s)     0.76077       0.10428
  35    H  4  s      Ryd( 2s)     0.00210       0.39483
  36    H  4  px     Ryd( 2p)     0.00004       1.81598
  37    H  4  py     Ryd( 2p)     0.00037       2.04710
  38    H  4  pz     Ryd( 2p)     0.00069       2.21005

  39    H  5  s      Val( 1s)     0.78013       0.10672
  40    H  5  s      Ryd( 2s)     0.00406       0.39658
  41    H  5  px     Ryd( 2p)     0.00039       2.01157
  42    H  5  py     Ryd( 2p)     0.00037       2.00347
  43    H  5  pz     Ryd( 2p)     0.00059       2.11462

  44    C  6  s      Cor( 1s)     1.99995     -10.55767
  45    C  6  s      Val( 2s)     1.01060      -0.14723
  46    C  6  s      Ryd( 3s)     0.00107       0.99264
  47    C  6  px     Val( 2p)     1.17738      -0.08148
  48    C  6  px     Ryd( 3p)     0.00554       0.71764
  49    C  6  py     Val( 2p)     1.12537      -0.07527
  50    C  6  py     Ryd( 3p)     0.00251       0.68972
  51    C  6  pz     Val( 2p)     1.14819      -0.07823
  52    C  6  pz     Ryd( 3p)     0.00224       0.69542
  53    C  6  dxy    Ryd( 3d)     0.00061       2.29889
  54    C  6  dxz    Ryd( 3d)     0.00060       2.28474
  55    C  6  dyz    Ryd( 3d)     0.00088       2.41178
  56    C  6  dx2y2  Ryd( 3d)     0.00055       2.27910
  57    C  6  dz2    Ryd( 3d)     0.00050       2.18640

  58    C  7  s      Cor( 1s)     1.99996     -10.55658
  59    C  7  s      Val( 2s)     0.94674      -0.08484
  60    C  7  s      Ryd( 3s)     0.00129       0.60059
  61    C  7  px     Val( 2p)     1.11142      -0.02402
  62    C  7  px     Ryd( 3p)     0.00329       0.71360
  63    C  7  py     Val( 2p)     1.07617      -0.05440
  64    C  7  py     Ryd( 3p)     0.00450       0.86132
  65    C  7  pz     Val( 2p)     1.04047      -0.08890
  66    C  7  pz     Ryd( 3p)     0.00334       0.74135
  67    C  7  dxy    Ryd( 3d)     0.00083       2.35564
  68    C  7  dxz    Ryd( 3d)     0.00090       2.18517
  69    C  7  dyz    Ryd( 3d)     0.00056       2.18869
  70    C  7  dx2y2  Ryd( 3d)     0.00077       2.34498
  71    C  7  dz2    Ryd( 3d)     0.00037       2.09405

  72    C  8  s      Cor( 1s)     1.99996     -10.55523
  73    C  8  s      Val( 2s)     0.93945      -0.08110
  74    C  8  s      Ryd( 3s)     0.00268       0.60584
  75    C  8  px     Val( 2p)     1.11054      -0.02966
  76    C  8  px     Ryd( 3p)     0.00391       0.76406
  77    C  8  py     Val( 2p)     1.12157      -0.06591
  78    C  8  py     Ryd( 3p)     0.00550       0.91294
  79    C  8  pz     Val( 2p)     1.04851      -0.08873
  80    C  8  pz     Ryd( 3p)     0.00387       0.70778
  81    C  8  dxy    Ryd( 3d)     0.00077       2.35809
  82    C  8  dxz    Ryd( 3d)     0.00087       2.17577
  83    C  8  dyz    Ryd( 3d)     0.00049       2.16742
  84    C  8  dx2y2  Ryd( 3d)     0.00074       2.36554
  85    C  8  dz2    Ryd( 3d)     0.00037       2.12944

  86    C  9  s      Cor( 1s)     1.99995     -10.56239
  87    C  9  s      Val( 2s)     0.96988      -0.13410
  88    C  9  s      Ryd( 3s)     0.00174       0.98551
  89    C  9  px     Val( 2p)     1.10433      -0.09007
  90    C  9  px     Ryd( 3p)     0.00550       0.80465
  91    C  9  py     Val( 2p)     1.10011      -0.08361
  92    C  9  py     Ryd( 3p)     0.00271       0.71705
  93    C  9  pz     Val( 2p)     1.20035      -0.10156
  94    C  9  pz     Ryd( 3p)     0.00548       0.90903
  95    C  9  dxy    Ryd( 3d)     0.00062       2.25701
  96    C  9  dxz    Ryd( 3d)     0.00078       2.26879
  97    C  9  dyz    Ryd( 3d)     0.00060       2.28538
  98    C  9  dx2y2  Ryd( 3d)     0.00060       2.18895
  99    C  9  dz2    Ryd( 3d)     0.00067       2.30516

 100    H 10  s      Val( 1s)     0.75832       0.11150
 101    H 10  s      Ryd( 2s)     0.00178       0.37735
 102    H 10  px     Ryd( 2p)     0.00078       2.28710
 103    H 10  py     Ryd( 2p)     0.00013       1.89282
 104    H 10  pz     Ryd( 2p)     0.00015       1.90182

 105    H 11  s      Val( 1s)     0.75440       0.10943
 106    H 11  s      Ryd( 2s)     0.00287       0.42190
 107    H 11  px     Ryd( 2p)     0.00009       1.92301
 108    H 11  py     Ryd( 2p)     0.00045       2.05432
 109    H 11  pz     Ryd( 2p)     0.00060       2.13194

 110    H 12  s      Val( 1s)     0.77288       0.11679
 111    H 12  s      Ryd( 2s)     0.00166       0.35575
 112    H 12  px     Ryd( 2p)     0.00026       2.07937
 113    H 12  py     Ryd( 2p)     0.00052       2.10326
 114    H 12  pz     Ryd( 2p)     0.00038       1.93306

 115    H 13  s      Val( 1s)     0.77025       0.11453
 116    H 13  s      Ryd( 2s)     0.00197       0.36269
 117    H 13  px     Ryd( 2p)     0.00020       2.06797
 118    H 13  py     Ryd( 2p)     0.00073       2.19954
 119    H 13  pz     Ryd( 2p)     0.00023       1.85411

 120    H 14  s      Val( 1s)     0.72791       0.11575
 121    H 14  s      Ryd( 2s)     0.00332       0.38953
 122    H 14  px     Ryd( 2p)     0.00013       1.96372
 123    H 14  py     Ryd( 2p)     0.00022       1.94164
 124    H 14  pz     Ryd( 2p)     0.00086       2.24632

 125    O 15  s      Cor( 1s)     1.99997     -19.63892
 126    O 15  s      Val( 2s)     1.59042      -0.75423
 127    O 15  s      Ryd( 3s)     0.00143       1.61958
 128    O 15  px     Val( 2p)     1.89579      -0.37352
 129    O 15  px     Ryd( 3p)     0.00288       1.32950
 130    O 15  py     Val( 2p)     1.47296      -0.31955
 131    O 15  py     Ryd( 3p)     0.00142       1.54328
 132    O 15  pz     Val( 2p)     1.66102      -0.35653
 133    O 15  pz     Ryd( 3p)     0.00151       1.27300
 134    O 15  dxy    Ryd( 3d)     0.00058       2.89342
 135    O 15  dxz    Ryd( 3d)     0.00090       2.82727
 136    O 15  dyz    Ryd( 3d)     0.00123       3.03970
 137    O 15  dx2y2  Ryd( 3d)     0.00084       3.01907
 138    O 15  dz2    Ryd( 3d)     0.00155       3.04480

 139    C 16  s      Cor( 1s)     1.99996     -10.63618
 140    C 16  s      Val( 2s)     0.91787      -0.12834
 141    C 16  s      Ryd( 3s)     0.00989       0.61979
 142    C 16  px     Val( 2p)     0.81248       0.03099
 143    C 16  px     Ryd( 3p)     0.01296       0.61360
 144    C 16  py     Val( 2p)     0.71089      -0.08596
 145    C 16  py     Ryd( 3p)     0.00629       0.59044
 146    C 16  pz     Val( 2p)     1.04365      -0.02984
 147    C 16  pz     Ryd( 3p)     0.00373       0.82120
 148    C 16  dxy    Ryd( 3d)     0.00187       2.12370
 149    C 16  dxz    Ryd( 3d)     0.00228       2.40910
 150    C 16  dyz    Ryd( 3d)     0.00103       2.04596
 151    C 16  dx2y2  Ryd( 3d)     0.00186       2.21241
 152    C 16  dz2    Ryd( 3d)     0.00269       2.44366

 153    H 17  s      Val( 1s)     0.85691       0.05702
 154    H 17  s      Ryd( 2s)     0.00360       0.39098
 155    H 17  px     Ryd( 2p)     0.00006       1.88014
 156    H 17  py     Ryd( 2p)     0.00002       1.72392
 157    H 17  pz     Ryd( 2p)     0.00125       2.34537

 158    O 18  s      Cor( 1s)     1.99997     -19.62571
 159    O 18  s      Val( 2s)     1.69003      -0.74260
 160    O 18  s      Ryd( 3s)     0.00132       1.59705
 161    O 18  px     Val( 2p)     1.67195      -0.34222
 162    O 18  px     Ryd( 3p)     0.00160       1.15358
 163    O 18  py     Val( 2p)     1.35064      -0.27712
 164    O 18  py     Ryd( 3p)     0.00017       1.13729
 165    O 18  pz     Val( 2p)     1.81689      -0.34275
 166    O 18  pz     Ryd( 3p)     0.00314       1.21569
 167    O 18  dxy    Ryd( 3d)     0.00215       2.94242
 168    O 18  dxz    Ryd( 3d)     0.00253       3.11656
 169    O 18  dyz    Ryd( 3d)     0.00090       2.81907
 170    O 18  dx2y2  Ryd( 3d)     0.00208       2.97394
 171    O 18  dz2    Ryd( 3d)     0.00131       2.87940

 172    C 19  s      Cor( 1s)     1.99995     -10.60105
 173    C 19  s      Val( 2s)     1.07284      -0.19718
 174    C 19  s      Ryd( 3s)     0.00177       0.81984
 175    C 19  px     Val( 2p)     1.16799      -0.08819
 176    C 19  px     Ryd( 3p)     0.00101       0.59797
 177    C 19  py     Val( 2p)     0.76987      -0.02669
 178    C 19  py     Ryd( 3p)     0.00338       0.58295
 179    C 19  pz     Val( 2p)     1.21582      -0.10059
 180    C 19  pz     Ryd( 3p)     0.00308       0.69341
 181    C 19  dxy    Ryd( 3d)     0.00142       2.17291
 182    C 19  dxz    Ryd( 3d)     0.00048       2.26158
 183    C 19  dyz    Ryd( 3d)     0.00120       2.30733
 184    C 19  dx2y2  Ryd( 3d)     0.00175       2.36008
 185    C 19  dz2    Ryd( 3d)     0.00097       2.34056

 186    H 20  s      Val( 1s)     0.78954       0.09717
 187    H 20  s      Ryd( 2s)     0.00070       0.34621
 188    H 20  px     Ryd( 2p)     0.00014       1.81201
 189    H 20  py     Ryd( 2p)     0.00018       1.85850
 190    H 20  pz     Ryd( 2p)     0.00081       2.25108

 191    H 21  s      Val( 1s)     0.82385       0.06852
 192    H 21  s      Ryd( 2s)     0.00213       0.42368
 193    H 21  px     Ryd( 2p)     0.00096       2.36144
 194    H 21  py     Ryd( 2p)     0.00007       1.77138
 195    H 21  pz     Ryd( 2p)     0.00012       1.84078

 196    H 22  s      Val( 1s)     0.81823       0.07087
 197    H 22  s      Ryd( 2s)     0.00208       0.39386
 198    H 22  px     Ryd( 2p)     0.00035       1.93178
 199    H 22  py     Ryd( 2p)     0.00023       1.91444
 200    H 22  pz     Ryd( 2p)     0.00056       2.10551


 Summary of Natural Population Analysis:

                                     Natural Population
             Natural    ---------------------------------------------
  Atom No    Charge        Core      Valence    Rydberg      Total
 --------------------------------------------------------------------
    C  1   -0.46865      1.99995     4.45482    0.01388     6.46865
    C  2    0.13361      1.99995     3.84385    0.02258     5.86639
    H  3    0.23265      0.00000     0.76457    0.00278     0.76735
    H  4    0.23603      0.00000     0.76077    0.00320     0.76397
    H  5    0.21445      0.00000     0.78013    0.00542     0.78555
    C  6   -0.47597      1.99995     4.46153    0.01449     6.47597
    C  7   -0.19061      1.99996     4.17480    0.01584     6.19061
    C  8   -0.23923      1.99996     4.22007    0.01920     6.23923
    C  9   -0.39331      1.99995     4.37467    0.01869     6.39331
    H 10    0.23884      0.00000     0.75832    0.00284     0.76116
    H 11    0.24160      0.00000     0.75440    0.00400     0.75840
    H 12    0.22430      0.00000     0.77288    0.00282     0.77570
    H 13    0.22662      0.00000     0.77025    0.00314     0.77338
    H 14    0.26757      0.00000     0.72791    0.00453     0.73243
    O 15   -0.63249      1.99997     6.62018    0.01234     8.63249
    C 16    0.47257      1.99996     3.48488    0.04260     5.52743
    H 17    0.13816      0.00000     0.85691    0.00493     0.86184
    O 18   -0.54469      1.99997     6.52952    0.01520     8.54469
    C 19   -0.24152      1.99995     4.22652    0.01505     6.24152
    H 20    0.20864      0.00000     0.78954    0.00183     0.79136
    H 21    0.17287      0.00000     0.82385    0.00328     0.82713
    H 22    0.17856      0.00000     0.81823    0.00321     0.82144
 ====================================================================
 * Total *  0.00000     19.99957    55.76859    0.23185    76.00000

                                 Natural Population
 ---------------------------------------------------------
   Core                      19.99957 ( 99.9978% of   20)
   Valence                   55.76859 ( 99.5868% of   56)
   Natural Minimal Basis     75.76815 ( 99.6949% of   76)
   Natural Rydberg Basis      0.23185 (  0.3051% of   76)
 ---------------------------------------------------------

    Atom No         Natural Electron Configuration
 ----------------------------------------------------------------------------
      C  1      [core]2s( 1.01)2p( 3.45)3p( 0.01)
      C  2      [core]2s( 0.91)2p( 2.94)3p( 0.01)3d( 0.01)
      H  3            1s( 0.76)
      H  4            1s( 0.76)
      H  5            1s( 0.78)
      C  6      [core]2s( 1.01)2p( 3.45)3p( 0.01)
      C  7      [core]2s( 0.95)2p( 3.23)3p( 0.01)
      C  8      [core]2s( 0.94)2p( 3.28)3p( 0.01)
      C  9      [core]2s( 0.97)2p( 3.40)3p( 0.01)
      H 10            1s( 0.76)
      H 11            1s( 0.75)
      H 12            1s( 0.77)
      H 13            1s( 0.77)
      H 14            1s( 0.73)
      O 15      [core]2s( 1.59)2p( 5.03)3p( 0.01)3d( 0.01)
      C 16      [core]2s( 0.92)2p( 2.57)3s( 0.01)3p( 0.02)3d( 0.01)
      H 17            1s( 0.86)
      O 18      [core]2s( 1.69)2p( 4.84)3d( 0.01)
      C 19      [core]2s( 1.07)2p( 3.15)3p( 0.01)3d( 0.01)
      H 20            1s( 0.79)
      H 21            1s( 0.82)
      H 22            1s( 0.82)


 NATURAL BOND ORBITAL ANALYSIS:

                            Occupancies       Lewis Structure    Low   High
         Max    Occ     -------------------  -----------------   occ   occ
  Cycle  Ctr   Thresh    Lewis   non-Lewis     CR  BD  nC  LP    (L)   (NL)
 ============================================================================
    1     1     1.00    56.34166  19.65834     10   0   0  28     0     24
 ----------------------------------------------------------------------------

 Structure accepted: Search for bonds prevented by NOBOND keyword

 -------------------------------------------------------
   Core                     19.99957 ( 99.998% of  20)
   Valence Lewis            36.34210 ( 64.897% of  56)
  ==================      =============================
   Total Lewis              56.34166 ( 74.134% of  76)
  -----------------------------------------------------
   Valence non-Lewis        19.50869 ( 25.669% of  76)
   Rydberg non-Lewis         0.14964 (  0.197% of  76)
  ==================      =============================
   Total non-Lewis          19.65834 ( 25.866% of  76)
 -------------------------------------------------------


     (Occupancy)   Bond orbital / Coefficients / Hybrids
 ------------------ Lewis ------------------------------------------------------
   1. (1.99995) CR ( 1) C  1            s(100.00%)
                                         1.0000  0.0000  0.0000  0.0000  0.0000
                                         0.0000  0.0000  0.0000  0.0000  0.0000
                                         0.0000  0.0000  0.0000  0.0000
   2. (1.99995) CR ( 1) C  2            s(100.00%)
                                         1.0000  0.0000  0.0000  0.0000  0.0000
                                         0.0000  0.0000  0.0000  0.0000  0.0000
                                         0.0000  0.0000  0.0000  0.0000
   3. (1.99995) CR ( 1) C  6            s(100.00%)
                                         1.0000  0.0000  0.0000  0.0000  0.0000
                                         0.0000  0.0000  0.0000  0.0000  0.0000
                                         0.0000  0.0000  0.0000  0.0000
   4. (1.99996) CR ( 1) C  7            s(100.00%)
                                         1.0000  0.0000  0.0000  0.0000  0.0000
                                         0.0000  0.0000  0.0000  0.0000  0.0000
                                         0.0000  0.0000  0.0000  0.0000
   5. (1.99996) CR ( 1) C  8            s(100.00%)
                                         1.0000  0.0000  0.0000  0.0000  0.0000
                                         0.0000  0.0000  0.0000  0.0000  0.0000
                                         0.0000  0.0000  0.0000  0.0000
   6. (1.99995) CR ( 1) C  9            s(100.00%)
                                         1.0000  0.0000  0.0000  0.0000  0.0000
                                         0.0000  0.0000  0.0000  0.0000  0.0000
                                         0.0000  0.0000  0.0000  0.0000
   7. (1.99997) CR ( 1) O 15            s(100.00%)
                                         1.0000  0.0000  0.0000  0.0000  0.0000
                                         0.0000  0.0000  0.0000  0.0000  0.0000
                                         0.0000  0.0000  0.0000  0.0000
   8. (1.99996) CR ( 1) C 16            s(100.00%)
                                         1.0000  0.0000  0.0000  0.0000  0.0000
                                         0.0000  0.0000  0.0000  0.0000  0.0000
                                         0.0000  0.0000  0.0000  0.0000
   9. (1.99997) CR ( 1) O 18            s(100.00%)
                                         1.0000  0.0000  0.0000  0.0000  0.0000
                                         0.0000  0.0000  0.0000  0.0000  0.0000
                                         0.0000  0.0000  0.0000  0.0000
  10. (1.99995) CR ( 1) C 19            s(100.00%)
                                         1.0000  0.0000  0.0000  0.0000  0.0000
                                         0.0000  0.0000  0.0000  0.0000  0.0000
                                         0.0000  0.0000  0.0000  0.0000
  11. (1.24335) LP ( 1) C  1            s(  0.09%)p99.99( 99.86%)d 0.64(  0.06%)
                                         0.0000  0.0291  0.0053 -0.3160  0.0083
                                         0.8978 -0.0233 -0.3032  0.0053 -0.0092
                                        -0.0035  0.0166 -0.0048 -0.0129
  12. (1.22193) LP ( 2) C  1            s( 23.77%)p 3.21( 76.19%)d 0.00(  0.04%)
                                         0.0000  0.4875 -0.0001 -0.3145 -0.0086
                                         0.1441 -0.0019  0.8012  0.0139 -0.0110
                                        -0.0001 -0.0111 -0.0142  0.0005
  13. (1.05173) LP ( 3) C  1            s(  0.25%)p99.99( 99.69%)d 0.26(  0.06%)
                                         0.0000  0.0496 -0.0029  0.8838  0.0231
                                         0.3927  0.0140  0.2463  0.0094 -0.0023
                                        -0.0163 -0.0095  0.0122 -0.0116
  14. (1.23575) LP ( 1) C  2            s( 14.81%)p 5.75( 85.15%)d 0.00(  0.04%)
                                         0.0000  0.3848 -0.0089  0.4669 -0.0044
                                         0.5686 -0.0133  0.5567 -0.0094  0.0106
                                         0.0123  0.0099 -0.0007  0.0049
  15. (1.03935) LP ( 2) C  2            s(  1.94%)p50.48( 98.00%)d 0.03(  0.06%)
                                         0.0000  0.1390 -0.0092 -0.8796 -0.0009
                                         0.3685  0.0008  0.2653  0.0139  0.0117
                                        -0.0016 -0.0070  0.0191 -0.0029
  16. (1.23895) LP ( 1) C  6            s(  0.01%)p 1.00( 99.94%)d 0.00(  0.05%)
                                         0.0000  0.0087 -0.0046  0.4380 -0.0122
                                         0.5850 -0.0096 -0.6819  0.0083 -0.0090
                                         0.0094 -0.0086 -0.0121  0.0111
  17. (1.23134) LP ( 2) C  6            s( 23.66%)p 3.22( 76.30%)d 0.00(  0.04%)
                                         0.0000  0.4864 -0.0039 -0.7869 -0.0024
                                         0.2454  0.0051 -0.2888 -0.0055  0.0073
                                        -0.0072 -0.0172  0.0035  0.0016
  18. (1.05300) LP ( 3) C  6            s(  0.47%)p99.99( 99.46%)d 0.13(  0.06%)
                                         0.0000  0.0687  0.0052  0.0359  0.0059
                                        -0.7678 -0.0176 -0.6349 -0.0195 -0.0170
                                        -0.0145  0.0003 -0.0062 -0.0094
  19. (1.23399) LP ( 1) C  7            s( 12.61%)p 6.93( 87.36%)d 0.00(  0.04%)
                                         0.0000  0.3548 -0.0144 -0.5908 -0.0007
                                        -0.5426  0.0093 -0.4795  0.0054  0.0116
                                         0.0068  0.0112 -0.0081  0.0021
  20. (1.05840) LP ( 2) C  7            s(  0.71%)p99.99( 99.23%)d 0.08(  0.06%)
                                         0.0000  0.0832  0.0122  0.7707  0.0349
                                        -0.5900 -0.0105 -0.2211  0.0040  0.0078
                                         0.0097 -0.0067  0.0190 -0.0044
  21. (1.23892) LP ( 1) C  8            s( 11.75%)p 7.51( 88.22%)d 0.00(  0.04%)
                                         0.0000  0.3423 -0.0167  0.5531 -0.0024
                                        -0.6983  0.0019 -0.2976  0.0046 -0.0094
                                        -0.0066  0.0094 -0.0119 -0.0023
  22. (1.05953) LP ( 2) C  8            s(  2.76%)p35.26( 97.19%)d 0.02(  0.06%)
                                         0.0000  0.1649  0.0194 -0.8075 -0.0288
                                        -0.3823 -0.0028 -0.4153 -0.0176 -0.0148
                                        -0.0032 -0.0070  0.0152 -0.0083
  23. (1.03095) LP ( 3) C  8            s(  0.00%)p 1.00( 99.93%)d 0.00(  0.07%)
                                         0.0000 -0.0033  0.0040 -0.1904  0.0087
                                        -0.5099  0.0083  0.8383 -0.0128  0.0115
                                        -0.0212  0.0069  0.0087 -0.0021
  24. (1.25486) LP ( 1) C  9            s(  9.55%)p 9.46( 90.41%)d 0.00(  0.04%)
                                         0.0000  0.3090 -0.0063  0.2583 -0.0027
                                        -0.3700  0.0012  0.8369 -0.0099 -0.0040
                                         0.0064 -0.0120 -0.0002  0.0130
  25. (1.10903) LP ( 2) C  9            s(  3.79%)p25.37( 96.15%)d 0.02(  0.06%)
                                         0.0000  0.1947  0.0018  0.9099  0.0053
                                        -0.0266 -0.0018 -0.3644  0.0041  0.0079
                                        -0.0178 -0.0067  0.0141  0.0016
  26. (1.08109) LP ( 3) C  9            s(  0.13%)p99.99( 99.82%)d 0.41(  0.05%)
                                         0.0000  0.0351  0.0060 -0.1791 -0.0016
                                        -0.9138 -0.0172 -0.3617 -0.0036  0.0154
                                         0.0105  0.0090  0.0057  0.0073
  27. (1.96270) LP ( 1) O 15            s( 38.19%)p 1.62( 61.77%)d 0.00(  0.04%)
                                         0.0000  0.6179 -0.0052  0.1798 -0.0019
                                        -0.3498  0.0047 -0.6804  0.0005  0.0035
                                         0.0080 -0.0146  0.0007 -0.0125
  28. (1.92367) LP ( 2) O 15            s(  0.13%)p99.99( 99.82%)d 0.39(  0.05%)
                                         0.0000  0.0359  0.0016  0.9578 -0.0057
                                         0.2294 -0.0010  0.1677  0.0009  0.0078
                                         0.0173  0.0061 -0.0085  0.0059
  29. (1.38081) LP ( 3) O 15            s(  4.57%)p20.88( 95.31%)d 0.03(  0.13%)
                                         0.0000  0.2136 -0.0054  0.0690  0.0001
                                        -0.7633 -0.0093  0.6045  0.0115  0.0085
                                        -0.0039 -0.0186  0.0079  0.0278
  30. (1.35845) LP ( 4) O 15            s( 57.09%)p 0.75( 42.84%)d 0.00(  0.06%)
                                         0.0000  0.7555  0.0075 -0.2119  0.0031
                                         0.4906  0.0066  0.3775 -0.0150 -0.0127
                                        -0.0083  0.0054 -0.0194  0.0036
  31. (1.19291) LP ( 1) C 16            s( 34.72%)p 1.88( 65.25%)d 0.00(  0.03%)
                                         0.0000  0.5888 -0.0230  0.0160  0.0180
                                        -0.1131  0.0109 -0.7994  0.0080 -0.0014
                                        -0.0049  0.0023 -0.0010  0.0156
  32. (1.98203) LP ( 1) O 18            s( 54.16%)p 0.85( 45.80%)d 0.00(  0.04%)
                                         0.0000  0.7358 -0.0143  0.5476  0.0010
                                         0.2098  0.0006  0.3378  0.0002 -0.0097
                                        -0.0129 -0.0055 -0.0113  0.0013
  33. (1.89038) LP ( 2) O 18            s(  0.00%)p 1.00( 99.88%)d 0.00(  0.12%)
                                         0.0000  0.0013  0.0053  0.5087 -0.0088
                                         0.0503 -0.0001 -0.8586  0.0122 -0.0066
                                         0.0160  0.0084 -0.0136  0.0246
  34. (1.34679) LP ( 3) O 18            s( 45.79%)p 1.18( 53.98%)d 0.00(  0.23%)
                                         0.0000  0.6763  0.0229 -0.5826 -0.0142
                                        -0.2659 -0.0063 -0.3596 -0.0112  0.0214
                                         0.0335  0.0132  0.0210 -0.0086
  35. (1.32135) LP ( 4) O 18            s(  0.08%)p99.99( 99.71%)d 2.81(  0.21%)
                                         0.0000  0.0275  0.0002 -0.3151 -0.0019
                                         0.9383  0.0055 -0.1317 -0.0016 -0.0307
                                         0.0122 -0.0188  0.0257  0.0045
  36. (1.22072) LP ( 1) C 19            s(  0.10%)p99.99( 99.84%)d 0.60(  0.06%)
                                         0.0000  0.0237  0.0209  0.2022 -0.0013
                                         0.1153 -0.0230 -0.9712  0.0213  0.0002
                                        -0.0130 -0.0144 -0.0059  0.0135
  37. (1.19634) LP ( 2) C 19            s(  0.68%)p99.99( 99.26%)d 0.09(  0.06%)
                                         0.0000  0.0826  0.0023  0.9317 -0.0025
                                         0.2692 -0.0029  0.2280  0.0003  0.0057
                                         0.0143  0.0058 -0.0107  0.0150
  38. (1.18379) LP ( 3) C 19            s( 79.18%)p 0.26( 20.80%)d 0.00(  0.02%)
                                         0.0000  0.8898 -0.0074 -0.2030  0.0013
                                         0.4071  0.0151  0.0271 -0.0096  0.0049
                                        -0.0008 -0.0002  0.0120  0.0055
 ---------------- non-Lewis ----------------------------------------------------
  39. (0.94333) LV ( 1) C  1            s( 75.75%)p 0.32( 24.23%)d 0.00(  0.02%)
                                         0.0000  0.8703  0.0000  0.1361 -0.0221
                                        -0.1325  0.0216 -0.4525  0.0226  0.0068
                                         0.0007  0.0085  0.0091  0.0015
  40. (0.92935) LV ( 1) C  2            s( 59.24%)p 0.69( 40.72%)d 0.00(  0.04%)
                                         0.0000  0.7697 -0.0021 -0.0843  0.0136
                                        -0.6099  0.0222  0.1630  0.0291 -0.0073
                                        -0.0065  0.0088  0.0007 -0.0139
  41. (0.64572) LV ( 2) C  2            s( 24.00%)p 3.16( 75.81%)d 0.01(  0.19%)
                                         0.0000  0.4894  0.0225  0.0158  0.0153
                                         0.4080  0.0109 -0.7678 -0.0398 -0.0007
                                        -0.0026 -0.0319 -0.0083  0.0278
  42. (0.76553) LV ( 1) H  3            s( 99.87%)p 0.00(  0.13%)
                                         0.9994  0.0000  0.0160 -0.0301 -0.0093
  43. (0.76177) LV ( 1) H  4            s( 99.87%)p 0.00(  0.13%)
                                         0.9993  0.0000  0.0012  0.0204 -0.0298
  44. (0.78138) LV ( 1) H  5            s( 99.84%)p 0.00(  0.16%)
                                         0.9992  0.0000 -0.0213 -0.0206 -0.0268
  45. (0.94255) LV ( 1) C  6            s( 75.77%)p 0.32( 24.21%)d 0.00(  0.02%)
                                         0.0000  0.8705  0.0024  0.4319 -0.0326
                                        -0.0826 -0.0042  0.2182  0.0005 -0.0038
                                         0.0067  0.0122 -0.0007 -0.0009
  46. (0.98254) LV ( 1) C  7            s(  0.04%)p99.99( 99.89%)d 1.96(  0.08%)
                                         0.0000  0.0192 -0.0042 -0.1718  0.0035
                                        -0.5322  0.0055  0.8282 -0.0122 -0.0135
                                         0.0214 -0.0038 -0.0044  0.0092
  47. (0.90573) LV ( 2) C  7            s( 86.53%)p 0.15( 13.40%)d 0.00(  0.06%)
                                         0.0000  0.9302  0.0063  0.1593 -0.0076
                                         0.2702 -0.0297  0.1851 -0.0211 -0.0110
                                         0.0036  0.0142  0.0086 -0.0150
  48. (0.89660) LV ( 1) C  8            s( 85.38%)p 0.17( 14.56%)d 0.00(  0.06%)
                                         0.0000  0.9240  0.0045 -0.0606 -0.0075
                                         0.3247 -0.0336  0.1875 -0.0129  0.0023
                                         0.0113  0.0159  0.0095 -0.0131
  49. (0.93307) LV ( 1) C  9            s( 86.45%)p 0.16( 13.53%)d 0.00(  0.01%)
                                         0.0000  0.9298  0.0021 -0.2694  0.0196
                                         0.1629 -0.0167 -0.1876  0.0186 -0.0002
                                         0.0005  0.0069 -0.0036 -0.0079
  50. (0.75926) LV ( 1) H 10            s( 99.88%)p 0.00(  0.12%)
                                         0.9994  0.0000  0.0317  0.0098 -0.0118
  51. (0.75538) LV ( 1) H 11            s( 99.87%)p 0.00(  0.13%)
                                         0.9993  0.0000  0.0049 -0.0230  0.0274
  52. (0.77387) LV ( 1) H 12            s( 99.87%)p 0.00(  0.13%)
                                         0.9994  0.0000  0.0171  0.0246  0.0197
  53. (0.77124) LV ( 1) H 13            s( 99.87%)p 0.00(  0.13%)
                                         0.9994  0.0000 -0.0145  0.0298  0.0140
  54. (0.72899) LV ( 1) H 14            s( 99.85%)p 0.00(  0.15%)
                                         0.9993  0.0000 -0.0097  0.0155 -0.0339
  55. (0.94992) LV ( 1) C 16            s( 27.41%)p 2.65( 72.55%)d 0.00(  0.04%)
                                         0.0000  0.5232 -0.0178 -0.7336  0.0119
                                        -0.1740 -0.0097  0.3961 -0.0080  0.0026
                                        -0.0174 -0.0031  0.0071  0.0029
  56. (0.70324) LV ( 2) C 16            s(  0.01%)p99.99( 99.65%)d26.77(  0.33%)
                                         0.0000  0.0111 -0.0016 -0.2870  0.0101
                                         0.9465 -0.0287 -0.1316  0.0000  0.0374
                                        -0.0151  0.0289 -0.0290 -0.0067
  57. (0.65272) LV ( 3) C 16            s( 37.80%)p 1.64( 61.99%)d 0.01(  0.21%)
                                         0.0000  0.6115  0.0636  0.6102  0.0773
                                         0.2375  0.0231  0.4291  0.0214  0.0194
                                         0.0326  0.0125  0.0221 -0.0056
  58. (0.85813) LV ( 1) H 17            s( 99.86%)p 0.00(  0.14%)
                                         0.9993  0.0000 -0.0019  0.0020  0.0375
  59. (0.63383) LV ( 1) C 19            s( 20.06%)p 3.97( 79.67%)d 0.01(  0.27%)
                                         0.0000  0.4472  0.0244  0.2203  0.0213
                                        -0.8618 -0.0400 -0.0450 -0.0378 -0.0211
                                        -0.0004  0.0013 -0.0397 -0.0253
  60. (0.79051) LV ( 1) H 20            s( 99.88%)p 0.00(  0.12%)
                                         0.9994  0.0000 -0.0083 -0.0144  0.0310
  61. (0.82482) LV ( 1) H 21            s( 99.88%)p 0.00(  0.12%)
                                         0.9994  0.0000  0.0337 -0.0027 -0.0049
  62. (0.81919) LV ( 1) H 22            s( 99.88%)p 0.00(  0.12%)
                                         0.9994  0.0000 -0.0183 -0.0157 -0.0245
  63. (0.00488) RY ( 1) C  1            s(  5.36%)p16.95( 90.82%)d 0.71(  3.82%)
                                         0.0000  0.0206  0.2305  0.0164  0.3375
                                        -0.0284 -0.8854 -0.0016  0.0966 -0.0754
                                        -0.0713  0.1240 -0.0660 -0.0879
  64. (0.00136) RY ( 2) C  1            s(  4.61%)p15.21( 70.15%)d 5.47( 25.24%)
                                         0.0000 -0.0282  0.2129 -0.0013 -0.3230
                                         0.0000 -0.0046  0.0080  0.7728  0.2733
                                         0.2129  0.0425  0.2075 -0.2958
  65. (0.00100) RY ( 3) C  1            s( 32.82%)p 1.91( 62.62%)d 0.14(  4.56%)
                                         0.0000  0.0062  0.5728 -0.0183  0.6872
                                        -0.0035  0.3824 -0.0025  0.0857  0.1506
                                         0.1098 -0.0664 -0.0118  0.0798
  66. (0.00073) RY ( 4) C  1            s( 46.00%)p 1.05( 48.33%)d 0.12(  5.67%)
                                         0.0000  0.0042  0.6782  0.0117 -0.4841
                                         0.0091 -0.0770  0.0058 -0.4927  0.1696
                                        -0.0468 -0.0899  0.0546 -0.1212
  67. (0.00017) RY ( 5) C  1            s(  1.67%)p 0.94(  1.58%)d57.76( 96.75%)
                                         0.0000 -0.0013  0.1294  0.0026 -0.0686
                                         0.0055 -0.0878 -0.0070  0.0574 -0.5942
                                         0.4108 -0.3900  0.4388  0.3177
  68. (0.00011) RY ( 6) C  1            s(  0.83%)p 8.62(  7.11%)d99.99( 92.06%)
                                         0.0000 -0.0062  0.0906  0.0247 -0.2093
                                         0.0142 -0.0926 -0.0019  0.1339  0.1629
                                         0.3506  0.0641 -0.6050  0.6332
  69. (0.00006) RY ( 7) C  1            s(  0.09%)p76.21(  6.85%)d99.99( 93.06%)
  70. (0.00003) RY ( 8) C  1            s(  5.81%)p 1.64(  9.51%)d14.57( 84.68%)
  71. (0.00001) RY ( 9) C  1            s(  2.96%)p 1.03(  3.06%)d31.72( 93.97%)
  72. (0.00561) RY ( 1) C  2            s( 14.38%)p 5.64( 81.10%)d 0.31(  4.52%)
                                         0.0000 -0.0031  0.3792 -0.0208  0.1942
                                        -0.0279  0.0061  0.0383 -0.8778 -0.0517
                                         0.1693  0.0385 -0.0533 -0.0975
  73. (0.00443) RY ( 2) C  2            s( 10.49%)p 7.67( 80.45%)d 0.86(  9.06%)
                                         0.0000 -0.0222  0.3231  0.0122  0.6657
                                         0.0261  0.5223  0.0160  0.2958 -0.1866
                                        -0.0927 -0.1476 -0.0252 -0.1574
  74. (0.00284) RY ( 3) C  2            s( 26.71%)p 1.92( 51.32%)d 0.82( 21.97%)
                                         0.0000  0.0026  0.5168  0.0034 -0.6384
                                         0.0101  0.3167  0.0046  0.0727  0.1248
                                        -0.2390 -0.1022 -0.1522 -0.3367
  75. (0.00151) RY ( 4) C  2            s(  1.43%)p12.04( 17.24%)d56.79( 81.33%)
                                         0.0000  0.0000  0.1197  0.0075  0.2478
                                        -0.0073 -0.3226  0.0054 -0.0823  0.4261
                                        -0.7637 -0.0253  0.2186  0.0015
  76. (0.00085) RY ( 5) C  2            s(  7.69%)p 0.33(  2.50%)d11.68( 89.81%)
                                         0.0000  0.0058  0.2772  0.0010 -0.0620
                                         0.0183 -0.0688 -0.0242  0.1246 -0.3336
                                        -0.0309  0.7356  0.4929 -0.0425
  77. (0.00043) RY ( 6) C  2            s( 33.99%)p 1.06( 36.13%)d 0.88( 29.87%)
                                         0.0000  0.0030  0.5830 -0.0038  0.0104
                                        -0.0131 -0.5452  0.0172  0.2520 -0.1750
                                         0.2064 -0.3492 -0.0218  0.3211
  78. (0.00031) RY ( 7) C  2            s(  0.34%)p68.51( 23.02%)d99.99( 76.65%)
                                         0.0000 -0.0093  0.0572 -0.0022 -0.1500
                                        -0.0144  0.4323  0.0293 -0.1405 -0.0562
                                        -0.2123 -0.0103  0.0836  0.8433
  79. (0.00017) RY ( 8) C  2            s(  0.10%)p34.25(  3.42%)d99.99( 96.48%)
                                         0.0000  0.0018  0.0315 -0.0182  0.0836
                                         0.0113 -0.1562  0.0007  0.0480 -0.1947
                                        -0.2633  0.4254 -0.8155  0.1077
  80. (0.00013) RY ( 9) C  2            s(  4.88%)p 1.05(  5.13%)d18.45( 89.99%)
                                         0.0000 -0.0027  0.2208 -0.0022  0.1278
                                        -0.0053  0.0938 -0.0125  0.1613  0.7629
                                         0.4052  0.3468 -0.0987  0.1537
  81. (0.00171) RY ( 1) H  3            s( 99.78%)p 0.00(  0.22%)
                                         0.0014  0.9989 -0.0013  0.0465 -0.0031
  82. (0.00007) RY ( 2) H  3            s(  0.13%)p99.99( 99.87%)
  83. (0.00003) RY ( 3) H  3            s(  0.01%)p99.99( 99.99%)
  84. (0.00002) RY ( 4) H  3            s(  0.20%)p99.99( 99.80%)
  85. (0.00211) RY ( 1) H  4            s( 99.78%)p 0.00(  0.22%)
                                         0.0013  0.9989  0.0228 -0.0355  0.0213
  86. (0.00005) RY ( 2) H  4            s(  0.18%)p99.99( 99.82%)
  87. (0.00003) RY ( 3) H  4            s(  0.01%)p 1.00( 99.99%)
  88. (0.00001) RY ( 4) H  4            s(  0.17%)p99.99( 99.83%)
  89. (0.00406) RY ( 1) H  5            s( 99.87%)p 0.00(  0.13%)
                                        -0.0003  0.9994  0.0009 -0.0333  0.0130
  90. (0.00004) RY ( 2) H  5            s(  0.07%)p99.99( 99.93%)
  91. (0.00004) RY ( 3) H  5            s(  0.07%)p99.99( 99.93%)
  92. (0.00002) RY ( 4) H  5            s(  0.15%)p99.99( 99.85%)
  93. (0.00592) RY ( 1) C  6            s(  7.79%)p11.44( 89.11%)d 0.40(  3.10%)
                                         0.0000  0.0237  0.2780  0.0220  0.8093
                                         0.0125  0.4200 -0.0050 -0.2432  0.0302
                                        -0.0380 -0.0077  0.1182 -0.1208
  94. (0.00191) RY ( 2) C  6            s(  4.49%)p17.66( 79.31%)d 3.61( 16.20%)
                                         0.0000 -0.0150  0.2114 -0.0015 -0.4362
                                         0.0121  0.2842 -0.0042 -0.7224  0.1612
                                        -0.1474  0.3278 -0.0818 -0.0097
  95. (0.00132) RY ( 3) C  6            s(  2.82%)p31.95( 90.22%)d 2.46(  6.95%)
                                         0.0000  0.0024  0.1680  0.0002  0.2049
                                         0.0143 -0.7882  0.0157 -0.4885  0.0601
                                         0.1630 -0.1598  0.0945  0.0700
  96. (0.00060) RY ( 4) C  6            s( 64.32%)p 0.12(  8.01%)d 0.43( 27.67%)
                                         0.0000 -0.0025  0.8020 -0.0131 -0.0976
                                        -0.0011 -0.0424  0.0028  0.2620 -0.1005
                                         0.1875 -0.0199 -0.4792 -0.0376
  97. (0.00027) RY ( 5) C  6            s(  9.05%)p 0.33(  2.95%)d 9.72( 88.00%)
                                         0.0000  0.0004  0.3009 -0.0018  0.0073
                                        -0.0016 -0.0462 -0.0041  0.1652 -0.1002
                                        -0.3196  0.2528  0.4252  0.7233
  98. (0.00007) RY ( 6) C  6            s(  2.04%)p 2.43(  4.97%)d45.54( 92.99%)
  99. (0.00005) RY ( 7) C  6            s(  7.63%)p 0.64(  4.92%)d11.46( 87.45%)
 100. (0.00003) RY ( 8) C  6            s(  0.00%)p 1.00( 14.06%)d 6.11( 85.94%)
 101. (0.00000) RY ( 9) C  6            s(  1.94%)p 3.37(  6.54%)d47.24( 91.52%)
 102. (0.00469) RY ( 1) C  7            s(  0.31%)p99.99( 91.92%)d25.16(  7.77%)
                                         0.0000 -0.0301  0.0467 -0.0130 -0.1994
                                        -0.0189 -0.7439 -0.0166 -0.5703 -0.2260
                                        -0.1174 -0.0809  0.0313 -0.0729
 103. (0.00255) RY ( 2) C  7            s( 10.60%)p 7.75( 82.15%)d 0.68(  7.25%)
                                         0.0000 -0.0030  0.3255 -0.0273  0.4562
                                         0.0040 -0.5510  0.0147  0.5558  0.0942
                                        -0.1695  0.1591  0.0678  0.0707
 104. (0.00189) RY ( 3) C  7            s(  1.78%)p48.80( 87.05%)d 6.26( 11.17%)
                                         0.0000 -0.0010  0.1336 -0.0176  0.7944
                                         0.0219  0.1295 -0.0077 -0.4710 -0.0213
                                         0.2354 -0.0934 -0.2154 -0.0261
 105. (0.00062) RY ( 4) C  7            s( 81.93%)p 0.15( 12.17%)d 0.07(  5.89%)
                                         0.0000  0.0011  0.9052 -0.0100 -0.2078
                                        -0.0105  0.2662 -0.0059 -0.0864 -0.1944
                                        -0.0960 -0.0191  0.0757 -0.0764
 106. (0.00016) RY ( 5) C  7            s(  0.00%)p 1.00(  2.14%)d45.65( 97.85%)
                                         0.0000  0.0007  0.0042  0.0254 -0.1153
                                        -0.0081 -0.0186 -0.0059  0.0839 -0.3125
                                        -0.0688  0.3734 -0.8446  0.1529
 107. (0.00006) RY ( 6) C  7            s(  0.59%)p22.88( 13.42%)d99.99( 85.99%)
 108. (0.00001) RY ( 7) C  7            s(  0.83%)p 1.08(  0.90%)d99.99( 98.27%)
 109. (0.00001) RY ( 8) C  7            s(  4.00%)p 2.28(  9.13%)d21.74( 86.87%)
 110. (0.00000) RY ( 9) C  7            s(  0.07%)p16.98(  1.24%)d99.99( 98.69%)
 111. (0.00497) RY ( 1) C  8            s( 18.45%)p 4.16( 76.77%)d 0.26(  4.78%)
                                         0.0000 -0.0068  0.4295  0.0172  0.5161
                                        -0.0031 -0.0822 -0.0185 -0.7028  0.1650
                                         0.0035 -0.0423  0.1060 -0.0871
 112. (0.00484) RY ( 2) C  8            s(  3.86%)p23.37( 90.26%)d 1.52(  5.87%)
                                         0.0000  0.0268  0.1947  0.0040 -0.0794
                                         0.0193  0.9432 -0.0002 -0.0800 -0.1056
                                        -0.1741  0.0249 -0.0933 -0.0892
 113. (0.00224) RY ( 3) C  8            s(  5.09%)p18.23( 92.90%)d 0.39(  2.00%)
                                         0.0000 -0.0215  0.2247  0.0297 -0.8287
                                         0.0039 -0.1545  0.0113 -0.4663  0.0477
                                         0.0187  0.0701 -0.1034  0.0427
 114. (0.00099) RY ( 4) C  8            s( 69.61%)p 0.33( 23.04%)d 0.11(  7.34%)
                                         0.0000  0.0017  0.8344  0.0142 -0.0269
                                        -0.0101 -0.0923  0.0069  0.4699 -0.1133
                                         0.1691 -0.0091  0.0879  0.1556
 115. (0.00013) RY ( 5) C  8            s(  0.02%)p99.99(  2.80%)d99.99( 97.18%)
                                         0.0000  0.0029  0.0131 -0.0206  0.0628
                                        -0.0096  0.1085 -0.0113  0.1080  0.7084
                                         0.3226  0.4287 -0.4139  0.1043
 116. (0.00006) RY ( 6) C  8            s(  2.20%)p 3.29(  7.23%)d41.25( 90.57%)
 117. (0.00001) RY ( 7) C  8            s(  0.07%)p 8.02(  0.54%)d99.99( 99.40%)
 118. (0.00001) RY ( 8) C  8            s(  0.76%)p 8.55(  6.46%)d99.99( 92.79%)
 119. (0.00001) RY ( 9) C  8            s(  0.06%)p 1.74(  0.11%)d99.99( 99.83%)
 120. (0.00658) RY ( 1) C  9            s(  0.56%)p99.99( 96.94%)d 4.51(  2.51%)
[...]
               Total unit 12    0.77570  (100.0000%)
              Charge unit 12    0.22430

 Molecular unit 13  (H)
 ------ Lewis --------------------------------------
 ------ non-Lewis ----------------------------------
   53. LV ( 1) H 13             0.77124     0.12467
  141. RY ( 1) H 13             0.00198     0.38494
  142. RY ( 2) H 13             0.00010     1.71813
  143. RY ( 3) H 13             0.00004     2.34594
  144. RY ( 4) H 13             0.00001     2.02516
          -------------------------------
                 Total Lewis    0.00000  (  0.0000%)
           Valence non-Lewis    0.77124  ( 99.7231%)
           Rydberg non-Lewis    0.00214  (  0.2769%)
          -------------------------------
               Total unit 13    0.77338  (100.0000%)
              Charge unit 13    0.22662

 Molecular unit 14  (H)
 ------ Lewis --------------------------------------
 ------ non-Lewis ----------------------------------
   54. LV ( 1) H 14             0.72899     0.12512
  145. RY ( 1) H 14             0.00333     0.39830
  146. RY ( 2) H 14             0.00007     1.93780
  147. RY ( 3) H 14             0.00003     1.90114
  148. RY ( 4) H 14             0.00001     2.29460
          -------------------------------
                 Total Lewis    0.00000  (  0.0000%)
           Valence non-Lewis    0.72899  ( 99.5298%)
           Rydberg non-Lewis    0.00344  (  0.4702%)
          -------------------------------
               Total unit 14    0.73243  (100.0000%)
              Charge unit 14    0.26757

 Molecular unit 15  (O)
 ------ Lewis --------------------------------------
    7. CR ( 1) O 15             1.99997   -19.63892
   27. LP ( 1) O 15             1.96270    -0.54831  41(r),59(r),72(r),56(r)
                                                     180(r),74(r),60(r),62(r)
                                                     44(r),54(r),76(r),73(r)
                                                     183(r),181(r),49(r),40(r)
                                                     184(r),189(r),61(r),45(r)
                                                     122(r),57(r),75(r),93(r)
                                                     160(r),78(r),187(r)
   28. LP ( 2) O 15             1.92367    -0.37616  56(r),40(r),61(r),39(r)
                                                     182(r),44(r),62(r),75(r)
                                                     77(r),72(r),51(r),55(r)
                                                     74(r),59(r),42(r),43(r)
                                                     50(r),76(r),92(r),196(r)
                                                     89(r),41(r),188(r),158(r)
                                                     190(r),63(r)
   29. LP ( 3) O 15             1.38081    -0.32082  41(r),59(r),40(r),78(r)
                                                     49(r),39(r),44(r),62(r)
                                                     181(r),76(r),185(r),61(r)
                                                     155(g),72(r),151(g),156(g)
                                                     154(g),184(r),186(r),60(r)
                                                     183(r),152(g),149(g),54(r)
                                                     180(r),77(r),121(r),43(r)
                                                     66(r),123(r),120(r),45(r)
                                                     55(r),57(r),79(r),56(r)
                                                     199(r),80(r),128(r),122(r)
   30. LP ( 4) O 15             1.35845    -0.55607  59(r),41(r),185(r),180(r)
                                                     186(r),152(g),40(r),61(r)
                                                     60(r),76(r),150(g),154(g)
                                                     157(g),62(r),151(g),181(r)
                                                     149(g),39(r),49(r),74(r)
                                                     73(r),75(r),78(r),56(r)
                                                     48(r),192(r),187(r),66(r)
                                                     55(r),93(r),191(r),77(r)
                                                     195(r),122(r)
 ------ non-Lewis ----------------------------------
  149. RY ( 1) O 15             0.00321     1.33493
  150. RY ( 2) O 15             0.00278     1.38489
  151. RY ( 3) O 15             0.00047     1.88580
  152. RY ( 4) O 15             0.00022     2.27286
  153. RY ( 5) O 15             0.00015     2.77737
  154. RY ( 6) O 15             0.00003     2.86765
  155. RY ( 7) O 15             0.00002     2.61784
  156. RY ( 8) O 15             0.00001     2.67822
  157. RY ( 9) O 15             0.00000     2.76761
          -------------------------------
                 Total Lewis    8.62560  ( 99.9202%)
           Valence non-Lewis    0.00000  (  0.0000%)
           Rydberg non-Lewis    0.00689  (  0.0798%)
          -------------------------------
               Total unit 15    8.63249  (100.0000%)
              Charge unit 15   -0.63249

 Molecular unit 16  (C)
 ------ Lewis --------------------------------------
    8. CR ( 1) C 16             1.99996   -10.63618  167(r)
   31. LP ( 1) C 16             1.19291    -0.15031  58(r),167(r),55(g),49(r)
                                                     57(g),168(r),169(r),162(g)
                                                     48(r),165(g),159(g),171(r)
                                                     158(g),166(g),160(g),164(g)
                                                     126(r),127(r),177(r),178(r)
                                                     40(r),111(r),114(r),46(r)
                                                     54(r),112(r),123(r),41(r)
                                                     141(r),172(r),174(r),175(r)
                                                     128(r),73(r),44(r),147(r)
                                                     115(r),85(r),151(r),59(r)
                                                     121(r)
 ------ non-Lewis ----------------------------------
   55. LV ( 1) C 16             0.94992    -0.05335
   56. LV ( 2) C 16             0.70324    -0.09933
   57. LV ( 3) C 16             0.65272     0.13795
  158. RY ( 1) C 16             0.01428     0.58808
  159. RY ( 2) C 16             0.00683     1.59933
  160. RY ( 3) C 16             0.00472     0.88682
  161. RY ( 4) C 16             0.00202     1.28065
  162. RY ( 5) C 16             0.00052     1.50748
  163. RY ( 6) C 16             0.00020     1.63825
  164. RY ( 7) C 16             0.00009     2.22580
  165. RY ( 8) C 16             0.00001     2.13877
  166. RY ( 9) C 16             0.00001     1.96659
          -------------------------------
                 Total Lewis    3.19286  ( 57.7639%)
           Valence non-Lewis    2.30588  ( 41.7171%)
           Rydberg non-Lewis    0.02869  (  0.5190%)
          -------------------------------
               Total unit 16    5.52743  (100.0000%)
              Charge unit 16    0.47257

 Molecular unit 17  (H)
 ------ Lewis --------------------------------------
 ------ non-Lewis ----------------------------------
   58. LV ( 1) H 17             0.85813     0.06594
  167. RY ( 1) H 17             0.00362     0.39746
  168. RY ( 2) H 17             0.00005     2.23739
  169. RY ( 3) H 17             0.00003     1.98163
  170. RY ( 4) H 17             0.00002     1.71501
          -------------------------------
                 Total Lewis    0.00000  (  0.0000%)
           Valence non-Lewis    0.85813  ( 99.5687%)
           Rydberg non-Lewis    0.00372  (  0.4313%)
          -------------------------------
               Total unit 17    0.86184  (100.0000%)
              Charge unit 17    0.13816

 Molecular unit 18  (O)
 ------ Lewis --------------------------------------
    9. CR ( 1) O 18             1.99997   -19.62571  57(r)
   32. LP ( 1) O 18             1.98203    -0.63026  57(r),158(r),55(r),58(r)
                                                     54(r),120(r),122(r),49(r)
                                                     164(r),160(r)
   33. LP ( 2) O 18             1.89038    -0.34188  55(r),58(r),49(r),159(r)
                                                     160(r),161(r),162(r),57(r)
                                                     163(r),168(r),167(r),40(r)
                                                     48(r),124(r),89(r),56(r)
   34. LP ( 3) O 18             1.34679    -0.45844  57(r),172(g),164(r),58(r)
                                                     158(r),49(r),120(r),55(r)
                                                     161(r),165(r),163(r),176(g)
                                                     174(g),178(g),162(r),111(r)
                                                     72(r),54(r),169(r),113(r)
                                                     160(r),40(r),166(r),127(r)
                                                     89(r),47(r),122(r),121(r)
                                                     73(r),159(r),146(r),56(r)
                                                     167(r),39(r),128(r),126(r)
                                                     46(r)
   35. LP ( 4) O 18             1.32135    -0.26815  56(r),173(g),57(r),163(r)
                                                     162(r),164(r),175(g),165(r)
                                                     160(r),122(r),158(r),47(r)
 ------ non-Lewis ----------------------------------
  171. RY ( 1) O 18             0.00391     1.25102
  172. RY ( 2) O 18             0.00014     1.54304
  173. RY ( 3) O 18             0.00008     1.17618
  174. RY ( 4) O 18             0.00003     1.31704
  175. RY ( 5) O 18             0.00000     2.80922
  176. RY ( 6) O 18             0.00000     3.16241
  177. RY ( 7) O 18             0.00000     2.83903
  178. RY ( 8) O 18             0.00000     2.97642
  179. RY ( 9) O 18             0.00000     2.75468
          -------------------------------
                 Total Lewis    8.54051  ( 99.9511%)
           Valence non-Lewis    0.00000  (  0.0000%)
           Rydberg non-Lewis    0.00418  (  0.0489%)
          -------------------------------
               Total unit 18    8.54469  (100.0000%)
              Charge unit 18   -0.54469

 Molecular unit 19  (C)
 ------ Lewis --------------------------------------
   10. CR ( 1) C 19             1.99995   -10.60105  60(r),61(r),62(r),197(r)
                                                     189(r)
   36. LP ( 1) C 19             1.22072    -0.09801  60(r),62(r),61(r),189(r)
                                                     49(r),197(r),193(r),187(g)
                                                     184(g),192(r),183(g),191(r)
                                                     188(g),185(g),194(r),180(g)
                                                     59(g),200(r),198(r),42(r)
                                                     150(r),181(g),186(g),41(r)
                                                     196(r),151(r),155(r),78(r)
                                                     55(r),152(r),81(r),149(r)
                                                     199(r),157(r),74(r),133(r)
                                                     156(r),44(r),43(r),122(r)
                                                     123(r),154(r),48(r),77(r)
                                                     79(r),195(r),89(r)
   37. LP ( 2) C 19             1.19634    -0.08951  62(r),61(r),60(r),197(r)
                                                     193(r),182(g),188(g),183(g)
                                                     200(r),196(r),190(r),184(g)
                                                     39(r),189(r),199(r),187(g)
                                                     153(r),198(r),73(r),195(r)
                                                     194(r),149(r),81(r),44(r)
                                                     51(r),156(r),150(r),89(r)
                                                     63(r),41(r),49(r),66(r)
                                                     151(r),192(r),191(r),65(r)
                                                     64(r)
   38. LP ( 3) C 19             1.18379    -0.20439  61(r),62(r),60(r),193(r)
                                                     189(r),197(r),59(g),191(r)
                                                     195(r),199(r),196(r),41(r)
                                                     200(r),186(g),180(g),192(r)
                                                     181(g),81(r),185(g),152(r)
                                                     89(r),66(r),42(r),45(r)
                                                     133(r),51(r),64(r),63(r)
                                                     43(r),122(r),155(r),39(r)
                                                     78(r),65(r),54(r),72(r)
                                                     73(r),44(r)
 ------ non-Lewis ----------------------------------
   59. LV ( 1) C 19             0.63383     0.01270
  180. RY ( 1) C 19             0.00273     1.11457
  181. RY ( 2) C 19             0.00170     0.63591
  182. RY ( 3) C 19             0.00150     2.21723
  183. RY ( 4) C 19             0.00074     1.02706
  184. RY ( 5) C 19             0.00017     1.44795
  185. RY ( 6) C 19             0.00004     1.31679
  186. RY ( 7) C 19             0.00001     1.92139
  187. RY ( 8) C 19             0.00000     2.15846
  188. RY ( 9) C 19             0.00000     2.26382
          -------------------------------
                 Total Lewis    5.60081  ( 89.7347%)
           Valence non-Lewis    0.63383  ( 10.1550%)
           Rydberg non-Lewis    0.00688  (  0.1103%)
          -------------------------------
               Total unit 19    6.24152  (100.0000%)
              Charge unit 19   -0.24152

 Molecular unit 20  (H)
 ------ Lewis --------------------------------------
 ------ non-Lewis ----------------------------------
   60. LV ( 1) H 20             0.79051     0.10660
  189. RY ( 1) H 20             0.00070     0.36333
  190. RY ( 2) H 20             0.00010     1.78366
  191. RY ( 3) H 20             0.00005     2.11997
  192. RY ( 4) H 20             0.00001     1.99141
          -------------------------------
                 Total Lewis    0.00000  (  0.0000%)
           Valence non-Lewis    0.79051  ( 99.8924%)
           Rydberg non-Lewis    0.00085  (  0.1076%)
          -------------------------------
               Total unit 20    0.79136  (100.0000%)
              Charge unit 20    0.20864

 Molecular unit 21  (H)
 ------ Lewis --------------------------------------
 ------ non-Lewis ----------------------------------
   61. LV ( 1) H 21             0.82482     0.07687
  193. RY ( 1) H 21             0.00214     0.43609
  194. RY ( 2) H 21             0.00009     1.82669
  195. RY ( 3) H 21             0.00007     1.91596
  196. RY ( 4) H 21             0.00001     2.21019
          -------------------------------
                 Total Lewis    0.00000  (  0.0000%)
           Valence non-Lewis    0.82482  ( 99.7201%)
           Rydberg non-Lewis    0.00231  (  0.2799%)
          -------------------------------
               Total unit 21    0.82713  (100.0000%)
              Charge unit 21    0.17287

 Molecular unit 22  (H)
 ------ Lewis --------------------------------------
 ------ non-Lewis ----------------------------------
   62. LV ( 1) H 22             0.81919     0.07941
  197. RY ( 1) H 22             0.00210     0.40963
  198. RY ( 2) H 22             0.00009     1.81094
  199. RY ( 3) H 22             0.00005     1.93477
  200. RY ( 4) H 22             0.00001     2.18171
          -------------------------------
                 Total Lewis    0.00000  (  0.0000%)
           Valence non-Lewis    0.81919  ( 99.7266%)
           Rydberg non-Lewis    0.00225  (  0.2734%)
          -------------------------------
               Total unit 22    0.82144  (100.0000%)
              Charge unit 22    0.17856

 $CHOOSE
   LONE 1 3 2 2 6 3 7 2 8 3 9 3 15 4 16 1 18 4 19 3 END
 $END

 NBO analysis completed in 0.69 CPU seconds (0 wall seconds)
 Maximum scratch memory used by NBO was 623756 words (4.76 MB)
 Maximum scratch memory used by G16NBO was 69762 words (0.53 MB)

 Opening RunExU unformatted file "/tmp/DA_P-20196.tmp/Gau-123872.EUF"
 Read unf file /tmp/DA_P-20196.tmp/Gau-123872.EUF:
 Label Gaussian matrix elements                                         IVers= 1 NLab= 2 Version=ES64L-G16RevB.01
 Title Product                                                         
 NAtoms=    22 NBasis=   200 NBsUse=   200 ICharg=     0 Multip=     1 NE=    76 Len12L=8 Len4L=8 IOpCl= 0 ICGU= -1
 GAUSSIAN SCALARS                    NI= 1 NR= 1 NTot=       1 LenBuf=    2 NRI=1 N=    1000
 NPA CHARGES                         NI= 0 NR= 1 NTot=      22 LenBuf= 2048 NRI=1 N=      22
 Recovered energy= -461.931559654     dipole=     -1.225712642967      0.135806596422      0.060069005799
 1\1\GINC-CU05\SP\RM062X\def2SVP\C8H12O2\WANG\22-Jan-2021\0\\# M062X/De
 f2SVP EM=GD3 POP=NBO6Read\\Product\\0,1\C,0,-0.177418,0.818552,-1.6809
 38\C,0,-0.118067,0.820905,-0.154758\H,0,0.331423,1.702695,-2.092705\H,
 0,-1.234625,0.891203,-1.981181\H,0,-0.510485,1.772609,0.251826\C,0,0.4
 36544,-0.469033,-2.227046\C,0,-0.093282,-1.681006,-1.511251\C,0,-0.721
 863,-1.617349,-0.335227\C,0,-0.958393,-0.330627,0.412641\H,0,0.247159,
 -0.556987,-3.307512\H,0,1.53366,-0.440113,-2.108061\H,0,0.060877,-2.65
 6027,-1.981724\H,0,-1.088872,-2.537827,0.129318\H,0,-2.020958,-0.03828
 9,0.362779\O,0,1.196295,0.621131,0.320249\C,0,-0.630727,-0.451938,1.89
 5663\H,0,0.10638,-1.245174,2.168437\O,0,-1.113183,0.265688,2.726032\C,
 0,2.061394,1.703189,0.125765\H,0,2.987528,1.489693,0.673481\H,0,2.3140
 22,1.85255,-0.939074\H,0,1.626607,2.641303,0.516258\\Version=ES64L-G16
 RevB.01\State=1-A\HF=-461.9315597\RMSD=6.062e-09\Dipole=0.3801529,0.06
 77841,-1.1727371\Quadrupole=1.0656829,3.6182655,-4.6839484,2.385391,1.
 9903615,-1.966314\PG=C01 [X(C8H12O2)]\\@


 THOUGH I SPEAK WITH THE TONGUES OF MEN AND OF ANGELS, 
 AND HAVE NOT LOVE,
 I AM BECOME AS SOUNDING BRASS, A TINKLING CYMBAL.
 AND THOUGH I HAVE THE GIFT OF PROPHECY,
 AND UNDERSTAND ALL MYSTERIES, AND ALL KNOWLEDGE.
 AND THOUGH I HAVE ALL FAITH, SO THAT I COULD REMOVE MOUNTAINS,
 AND HAVE NOT LOVE, I AM NOTHING.
 AND THOUGH I BESTOW ALL MY GOODS TO FEED THE POOR,
 AND THOUGH I GIVE MY BODY TO BE BURNED,
 AND HAVE NOT LOVE IT PROFITETH ME NOTHING.
 LOVE SUFFERETH LONG, AND IS KIND,
 LOVE ENVIETH NOT,
 LOVE VAUNTETH NOT ITSELF, IS NOT PUFFED UP,
 DOTH NOT BEHAVE ITSELF UNSEEMLY, SEEKETH NOT HER OWN,
 IS NOT EASILY PROVOKED, THINKETH NO EVIL,
 REJOICETH NOT IN INIQUITY, BUT REJOICETH IN THE TRUTH,
 BEARETH ALL THINGS, BELIEVETH ALL THINGS,
 HOPETH ALL THINGS, ENDURETH ALL THINGS.
 LOVE NEVER FAILETH, BUT WHETHER THERE BE PROPHECIES, THEY SHALL FAIL, 
 WHETHER THERE BE TONGUES, THEY SHALL CEASE,
 WHETHER THERE BE KNOWLEDGE, IT SHALL VANISH AWAY.
 FOR WE KNOW IN PART, AND WE PROPHESY IN PART.
 BUT WHEN THAT WHICH IS PERFECT IS COME, THEN THAT WHICH IS IN PART 
 SHALL BE DONE AWAY. 
 WHEN I WAS A CHILD, I SPAKE AS A CHILD, I UNDERSTOOD AS A CHILD, 
 I THOUGHT AS A CHILD.
 BUT WHEN I BECAME A MAN, I PUT AWAY CHILDISH THINGS.
 FOR NOW WE SEE THROUGH A GLASS, DARKLY, BUT THEN FACE TO FACE.
 NOW I KNOW IN PART. BUT THEN SHALL I KNOW EVEN AS ALSO I AM KNOWN.
 AND NOW ABIDETH FAITH, HOPE AND LOVE, THESE THREE.
 BUT THE GREATEST OF THESE IS LOVE.

                     I CORINTHIANS 13
 Job cpu time:       0 days  0 hours  4 minutes 27.5 seconds.
 Elapsed time:       0 days  0 hours  0 minutes  9.7 seconds.
 File lengths (MBytes):  RWF=     24 Int=      0 D2E=      0 Chk=      4 Scr=      1
 Normal termination of Gaussian 16 at Fri Jan 22 15:39:46 2021.
