Reactant complex                                                        
SP        RM062X                                                      def2SVP             
Number of atoms                            I               22
Info1-9                                    I   N=           9
          36          35           0           0           0         110
           1          18       -5502
Full Title                                 C   N=           2
Reactant complex        
Route                                      C   N=           3
# M062X/Def2SVP EM=GD3 POP=NBO6Read 
Charge                                     I                0
Multiplicity                               I                1
Number of electrons                        I               76
Number of alpha electrons                  I               38
Number of beta electrons                   I               38
Number of basis functions                  I              200
Number of independent functions            I              200
Number of point charges in /Mol/           I                0
Number of translation vectors              I                0
Atomic numbers                             I   N=          22
           6           6           1           1           1           6
           6           6           6           1           1           1
           1           1           8           6           1           8
           6           1           1           1
Nuclear charges                            R   N=          22
  6.00000000E+00  6.00000000E+00  1.00000000E+00  1.00000000E+00  1.00000000E+00
  6.00000000E+00  6.00000000E+00  6.00000000E+00  6.00000000E+00  1.00000000E+00
  1.00000000E+00  1.00000000E+00  1.00000000E+00  1.00000000E+00  8.00000000E+00
  6.00000000E+00  1.00000000E+00  8.00000000E+00  6.00000000E+00  1.00000000E+00
  1.00000000E+00  1.00000000E+00
Current cartesian coordinates              R   N=          66
  2.70365859E+00 -3.41668739E+00 -2.24635554E+00  3.39295633E+00 -1.33130696E+00
 -9.93274092E-01  1.75630740E+00 -5.01180438E+00 -1.35206768E+00  3.13998287E+00
 -3.55015322E+00 -4.25258689E+00  4.33160442E+00  2.58467057E-01 -1.92019130E+00
 -4.77931530E+00 -2.33237089E+00 -1.32978476E+00 -5.13630840E+00 -4.30339223E-01
  2.98038762E-01 -3.20217332E+00  1.45972450E+00  9.12629883E-01 -1.34204668E+00
  2.20528637E+00 -6.43416236E-01 -2.95617096E+00 -2.60491512E+00 -2.26767462E+00
 -6.28266289E+00 -3.68334630E+00 -1.73856355E+00 -6.94293775E+00 -2.66674241E-01
  1.28951598E+00 -3.29324173E+00  2.31340649E+00  2.79961878E+00 -1.17526580E+00
  1.50465283E+00 -2.58029773E+00  3.02512220E+00 -8.25461871E-01  1.47079539E+00
  6.16335844E-01  3.98775250E+00  2.20518299E-01  3.58032700E-01  4.70217126E+00
  2.19282021E+00  2.38284094E+00  4.65005010E+00 -1.05135398E+00  1.70297003E+00
 -2.63519801E+00  2.88736908E+00  1.54807087E+00 -1.90227539E+00  4.81800294E+00
 -2.05668302E-01 -2.94416491E+00  2.10306512E+00  2.72178153E+00 -4.45323532E+00
  2.91847518E+00
Number of symbols in /Mol/                 I                0
Force Field                                I                0
Atom Types                                 C   N=          22
                                                            
                                                            
                                                            
                                                            
                        
Int Atom Types                             I   N=          22
           0           0           0           0           0           0
           0           0           0           0           0           0
           0           0           0           0           0           0
           0           0           0           0
MM charges                                 R   N=          22
  0.00000000E+00  0.00000000E+00  0.00000000E+00  0.00000000E+00  0.00000000E+00
  0.00000000E+00  0.00000000E+00  0.00000000E+00  0.00000000E+00  0.00000000E+00
  0.00000000E+00  0.00000000E+00  0.00000000E+00  0.00000000E+00  0.00000000E+00
  0.00000000E+00  0.00000000E+00  0.00000000E+00  0.00000000E+00  0.00000000E+00
  0.00000000E+00  0.00000000E+00
Integer atomic weights                     I   N=          22
          12          12           1           1           1          12
          12          12          12           1           1           1
           1           1          16          12           1          16
          12           1           1           1
Real atomic weights                        R   N=          22
  1.20000000E+01  1.20000000E+01  1.00782504E+00  1.00782504E+00  1.00782504E+00
  1.20000000E+01  1.20000000E+01  1.20000000E+01  1.20000000E+01  1.00782504E+00
  1.00782504E+00  1.00782504E+00  1.00782504E+00  1.00782504E+00  1.59949146E+01
  1.20000000E+01  1.00782504E+00  1.59949146E+01  1.20000000E+01  1.00782504E+00
  1.00782504E+00  1.00782504E+00
Atom fragment info                         I   N=          22
           0           0           0           0           0           0
           0           0           0           0           0           0
           0           0           0           0           0           0
           0           0           0           0
Atom residue num                           I   N=          22
           0           0           0           0           0           0
           0           0           0           0           0           0
           0           0           0           0           0           0
           0           0           0           0
Nuclear spins                              I   N=          22
           0           0           1           1           1           0
           0           0           0           1           1           1
           1           1           0           0           1           0
           0           1           1           1
Nuclear ZEff                               R   N=          22
 -3.60000000E+00 -3.60000000E+00 -1.00000000E+00 -1.00000000E+00 -1.00000000E+00
 -3.60000000E+00 -3.60000000E+00 -3.60000000E+00 -3.60000000E+00 -1.00000000E+00
 -1.00000000E+00 -1.00000000E+00 -1.00000000E+00 -1.00000000E+00 -5.60000000E+00
 -3.60000000E+00 -1.00000000E+00 -5.60000000E+00 -3.60000000E+00 -1.00000000E+00
 -1.00000000E+00 -1.00000000E+00
Nuclear ZNuc                               R   N=          22
  6.00000000E+00  6.00000000E+00  1.00000000E+00  1.00000000E+00  1.00000000E+00
  6.00000000E+00  6.00000000E+00  6.00000000E+00  6.00000000E+00  1.00000000E+00
  1.00000000E+00  1.00000000E+00  1.00000000E+00  1.00000000E+00  8.00000000E+00
  6.00000000E+00  1.00000000E+00  8.00000000E+00  6.00000000E+00  1.00000000E+00
  1.00000000E+00  1.00000000E+00
Nuclear QMom                               R   N=          22
  0.00000000E+00  0.00000000E+00  0.00000000E+00  0.00000000E+00  0.00000000E+00
  0.00000000E+00  0.00000000E+00  0.00000000E+00  0.00000000E+00  0.00000000E+00
  0.00000000E+00  0.00000000E+00  0.00000000E+00  0.00000000E+00  0.00000000E+00
  0.00000000E+00  0.00000000E+00  0.00000000E+00  0.00000000E+00  0.00000000E+00
  0.00000000E+00  0.00000000E+00
Nuclear GFac                               R   N=          22
  0.00000000E+00  0.00000000E+00  2.79284600E+00  2.79284600E+00  2.79284600E+00
  0.00000000E+00  0.00000000E+00  0.00000000E+00  0.00000000E+00  2.79284600E+00
  2.79284600E+00  2.79284600E+00  2.79284600E+00  2.79284600E+00  0.00000000E+00
  0.00000000E+00  2.79284600E+00  0.00000000E+00  0.00000000E+00  2.79284600E+00
  2.79284600E+00  2.79284600E+00
MicOpt                                     I   N=          22
          -1          -1          -1          -1          -1          -1
          -1          -1          -1          -1          -1          -1
          -1          -1          -1          -1          -1          -1
          -1          -1          -1          -1
Number of residues                         I                0
Number of secondary structures             I                0
SymInf integers                            I   N=          26
           1           1           1           1           1           0
           0           0           0           0           0           0
           0           0           0           0           0           0
           0           0           0           0           0           0
           0           0
RotTr to input orientation                 R   N=          12
  9.95676201E-02  8.52797482E-01  5.12662408E-01 -4.37823136E-01 -4.25118114E-01
  7.92202936E-01  8.93530744E-01 -3.03333224E-01  3.31046469E-01  9.22837310E-02
  2.26300920E-02 -1.17007689E-01
Number of contracted shells                I               96
Number of primitive shells                 I              180
Pure/Cartesian d shells                    I                0
Pure/Cartesian f shells                    I                0
Highest angular momentum                   I                2
Largest degree of contraction              I                5
Shell types                                I   N=          96
           0           0           0           1           1          -2
           0           0           0           1           1          -2
           0           0           1           0           0           1
           0           0           1           0           0           0
           1           1          -2           0           0           0
           1           1          -2           0           0           0
           1           1          -2           0           0           0
           1           1          -2           0           0           1
           0           0           1           0           0           1
           0           0           1           0           0           1
           0           0           0           1           1          -2
           0           0           0           1           1          -2
           0           0           1           0           0           0
           1           1          -2           0           0           0
           1           1          -2           0           0           1
           0           0           1           0           0           1
Number of primitives per shell             I   N=          96
           5           1           1           3           1           1
           5           1           1           3           1           1
           3           1           1           3           1           1
           3           1           1           5           1           1
           3           1           1           5           1           1
           3           1           1           5           1           1
           3           1           1           5           1           1
           3           1           1           3           1           1
           3           1           1           3           1           1
           3           1           1           3           1           1
           5           1           1           3           1           1
           5           1           1           3           1           1
           3           1           1           5           1           1
           3           1           1           5           1           1
           3           1           1           3           1           1
           3           1           1           3           1           1
Shell to atom map                          I   N=          96
           1           1           1           1           1           1
           2           2           2           2           2           2
           3           3           3           4           4           4
           5           5           5           6           6           6
           6           6           6           7           7           7
           7           7           7           8           8           8
           8           8           8           9           9           9
           9           9           9          10          10          10
          11          11          11          12          12          12
          13          13          13          14          14          14
          15          15          15          15          15          15
          16          16          16          16          16          16
          17          17          17          18          18          18
          18          18          18          19          19          19
          19          19          19          20          20          20
          21          21          21          22          22          22
Primitive exponents                        R   N=         180
  1.23840169E+03  1.86290050E+02  4.22511763E+01  1.16765579E+01  3.59305065E+00
  4.02451474E-01  1.30901827E-01  9.46809706E+00  2.01035451E+00  5.47710047E-01
  1.52686138E-01  8.00000000E-01  1.23840169E+03  1.86290050E+02  4.22511763E+01
  1.16765579E+01  3.59305065E+00  4.02451474E-01  1.30901827E-01  9.46809706E+00
  2.01035451E+00  5.47710047E-01  1.52686138E-01  8.00000000E-01  1.30107010E+01
  1.96225720E+00  4.44537960E-01  1.21949620E-01  8.00000000E-01  1.30107010E+01
  1.96225720E+00  4.44537960E-01  1.21949620E-01  8.00000000E-01  1.30107010E+01
  1.96225720E+00  4.44537960E-01  1.21949620E-01  8.00000000E-01  1.23840169E+03
  1.86290050E+02  4.22511763E+01  1.16765579E+01  3.59305065E+00  4.02451474E-01
  1.30901827E-01  9.46809706E+00  2.01035451E+00  5.47710047E-01  1.52686138E-01
  8.00000000E-01  1.23840169E+03  1.86290050E+02  4.22511763E+01  1.16765579E+01
  3.59305065E+00  4.02451474E-01  1.30901827E-01  9.46809706E+00  2.01035451E+00
  5.47710047E-01  1.52686138E-01  8.00000000E-01  1.23840169E+03  1.86290050E+02
  4.22511763E+01  1.16765579E+01  3.59305065E+00  4.02451474E-01  1.30901827E-01
  9.46809706E+00  2.01035451E+00  5.47710047E-01  1.52686138E-01  8.00000000E-01
  1.23840169E+03  1.86290050E+02  4.22511763E+01  1.16765579E+01  3.59305065E+00
  4.02451474E-01  1.30901827E-01  9.46809706E+00  2.01035451E+00  5.47710047E-01
  1.52686138E-01  8.00000000E-01  1.30107010E+01  1.96225720E+00  4.44537960E-01
  1.21949620E-01  8.00000000E-01  1.30107010E+01  1.96225720E+00  4.44537960E-01
  1.21949620E-01  8.00000000E-01  1.30107010E+01  1.96225720E+00  4.44537960E-01
  1.21949620E-01  8.00000000E-01  1.30107010E+01  1.96225720E+00  4.44537960E-01
  1.21949620E-01  8.00000000E-01  1.30107010E+01  1.96225720E+00  4.44537960E-01
  1.21949620E-01  8.00000000E-01  2.26617678E+03  3.40870102E+02  7.73631352E+01
  2.14796449E+01  6.65894331E+00  8.09759757E-01  2.55307722E-01  1.77215043E+01
  3.86355054E+00  1.04809209E+00  2.76415444E-01  1.20000000E+00  1.23840169E+03
  1.86290050E+02  4.22511763E+01  1.16765579E+01  3.59305065E+00  4.02451474E-01
  1.30901827E-01  9.46809706E+00  2.01035451E+00  5.47710047E-01  1.52686138E-01
  8.00000000E-01  1.30107010E+01  1.96225720E+00  4.44537960E-01  1.21949620E-01
  8.00000000E-01  2.26617678E+03  3.40870102E+02  7.73631352E+01  2.14796449E+01
  6.65894331E+00  8.09759757E-01  2.55307722E-01  1.77215043E+01  3.86355054E+00
  1.04809209E+00  2.76415444E-01  1.20000000E+00  1.23840169E+03  1.86290050E+02
  4.22511763E+01  1.16765579E+01  3.59305065E+00  4.02451474E-01  1.30901827E-01
  9.46809706E+00  2.01035451E+00  5.47710047E-01  1.52686138E-01  8.00000000E-01
  1.30107010E+01  1.96225720E+00  4.44537960E-01  1.21949620E-01  8.00000000E-01
  1.30107010E+01  1.96225720E+00  4.44537960E-01  1.21949620E-01  8.00000000E-01
  1.30107010E+01  1.96225720E+00  4.44537960E-01  1.21949620E-01  8.00000000E-01
Contraction coefficients                   R   N=         180
  5.51736505E-03  4.10888286E-02  1.82253821E-01  4.68284594E-01  4.45758173E-01
  1.00000000E+00  1.00000000E+00  5.68883320E-02  3.12940593E-01  7.60650165E-01
  1.00000000E+00  1.00000000E+00  5.51736505E-03  4.10888286E-02  1.82253821E-01
  4.68284594E-01  4.45758173E-01  1.00000000E+00  1.00000000E+00  5.68883320E-02
  3.12940593E-01  7.60650165E-01  1.00000000E+00  1.00000000E+00  3.34854848E-02
  2.34721871E-01  8.13770285E-01  1.00000000E+00  1.00000000E+00  3.34854848E-02
  2.34721871E-01  8.13770285E-01  1.00000000E+00  1.00000000E+00  3.34854848E-02
  2.34721871E-01  8.13770285E-01  1.00000000E+00  1.00000000E+00  5.51736505E-03
  4.10888286E-02  1.82253821E-01  4.68284594E-01  4.45758173E-01  1.00000000E+00
  1.00000000E+00  5.68883320E-02  3.12940593E-01  7.60650165E-01  1.00000000E+00
  1.00000000E+00  5.51736505E-03  4.10888286E-02  1.82253821E-01  4.68284594E-01
  4.45758173E-01  1.00000000E+00  1.00000000E+00  5.68883320E-02  3.12940593E-01
  7.60650165E-01  1.00000000E+00  1.00000000E+00  5.51736505E-03  4.10888286E-02
  1.82253821E-01  4.68284594E-01  4.45758173E-01  1.00000000E+00  1.00000000E+00
  5.68883320E-02  3.12940593E-01  7.60650165E-01  1.00000000E+00  1.00000000E+00
  5.51736505E-03  4.10888286E-02  1.82253821E-01  4.68284594E-01  4.45758173E-01
  1.00000000E+00  1.00000000E+00  5.68883320E-02  3.12940593E-01  7.60650165E-01
  1.00000000E+00  1.00000000E+00  3.34854848E-02  2.34721871E-01  8.13770285E-01
  1.00000000E+00  1.00000000E+00  3.34854848E-02  2.34721871E-01  8.13770285E-01
  1.00000000E+00  1.00000000E+00  3.34854848E-02  2.34721871E-01  8.13770285E-01
  1.00000000E+00  1.00000000E+00  3.34854848E-02  2.34721871E-01  8.13770285E-01
  1.00000000E+00  1.00000000E+00  3.34854848E-02  2.34721871E-01  8.13770285E-01
  1.00000000E+00  1.00000000E+00 -5.38935039E-03 -4.02347214E-02 -1.80081842E-01
 -4.68288577E-01 -4.46926172E-01  1.00000000E+00  1.00000000E+00  6.26302488E-02
  3.33311385E-01  7.41486383E-01  1.00000000E+00  1.00000000E+00  5.51736505E-03
  4.10888286E-02  1.82253821E-01  4.68284594E-01  4.45758173E-01  1.00000000E+00
  1.00000000E+00  5.68883320E-02  3.12940593E-01  7.60650165E-01  1.00000000E+00
  1.00000000E+00  3.34854848E-02  2.34721871E-01  8.13770285E-01  1.00000000E+00
  1.00000000E+00 -5.38935039E-03 -4.02347214E-02 -1.80081842E-01 -4.68288577E-01
 -4.46926172E-01  1.00000000E+00  1.00000000E+00  6.26302488E-02  3.33311385E-01
  7.41486383E-01  1.00000000E+00  1.00000000E+00  5.51736505E-03  4.10888286E-02
  1.82253821E-01  4.68284594E-01  4.45758173E-01  1.00000000E+00  1.00000000E+00
  5.68883320E-02  3.12940593E-01  7.60650165E-01  1.00000000E+00  1.00000000E+00
  3.34854848E-02  2.34721871E-01  8.13770285E-01  1.00000000E+00  1.00000000E+00
  3.34854848E-02  2.34721871E-01  8.13770285E-01  1.00000000E+00  1.00000000E+00
  3.34854848E-02  2.34721871E-01  8.13770285E-01  1.00000000E+00  1.00000000E+00
Coordinates of each shell                  R   N=         288
  2.70365859E+00 -3.41668739E+00 -2.24635554E+00  2.70365859E+00 -3.41668739E+00
 -2.24635554E+00  2.70365859E+00 -3.41668739E+00 -2.24635554E+00  2.70365859E+00
 -3.41668739E+00 -2.24635554E+00  2.70365859E+00 -3.41668739E+00 -2.24635554E+00
  2.70365859E+00 -3.41668739E+00 -2.24635554E+00  3.39295633E+00 -1.33130696E+00
 -9.93274092E-01  3.39295633E+00 -1.33130696E+00 -9.93274092E-01  3.39295633E+00
 -1.33130696E+00 -9.93274092E-01  3.39295633E+00 -1.33130696E+00 -9.93274092E-01
  3.39295633E+00 -1.33130696E+00 -9.93274092E-01  3.39295633E+00 -1.33130696E+00
 -9.93274092E-01  1.75630740E+00 -5.01180438E+00 -1.35206768E+00  1.75630740E+00
 -5.01180438E+00 -1.35206768E+00  1.75630740E+00 -5.01180438E+00 -1.35206768E+00
  3.13998287E+00 -3.55015322E+00 -4.25258689E+00  3.13998287E+00 -3.55015322E+00
 -4.25258689E+00  3.13998287E+00 -3.55015322E+00 -4.25258689E+00  4.33160442E+00
  2.58467057E-01 -1.92019130E+00  4.33160442E+00  2.58467057E-01 -1.92019130E+00
  4.33160442E+00  2.58467057E-01 -1.92019130E+00 -4.77931530E+00 -2.33237089E+00
 -1.32978476E+00 -4.77931530E+00 -2.33237089E+00 -1.32978476E+00 -4.77931530E+00
 -2.33237089E+00 -1.32978476E+00 -4.77931530E+00 -2.33237089E+00 -1.32978476E+00
 -4.77931530E+00 -2.33237089E+00 -1.32978476E+00 -4.77931530E+00 -2.33237089E+00
 -1.32978476E+00 -5.13630840E+00 -4.30339223E-01  2.98038762E-01 -5.13630840E+00
 -4.30339223E-01  2.98038762E-01 -5.13630840E+00 -4.30339223E-01  2.98038762E-01
 -5.13630840E+00 -4.30339223E-01  2.98038762E-01 -5.13630840E+00 -4.30339223E-01
  2.98038762E-01 -5.13630840E+00 -4.30339223E-01  2.98038762E-01 -3.20217332E+00
  1.45972450E+00  9.12629883E-01 -3.20217332E+00  1.45972450E+00  9.12629883E-01
 -3.20217332E+00  1.45972450E+00  9.12629883E-01 -3.20217332E+00  1.45972450E+00
  9.12629883E-01 -3.20217332E+00  1.45972450E+00  9.12629883E-01 -3.20217332E+00
  1.45972450E+00  9.12629883E-01 -1.34204668E+00  2.20528637E+00 -6.43416236E-01
 -1.34204668E+00  2.20528637E+00 -6.43416236E-01 -1.34204668E+00  2.20528637E+00
 -6.43416236E-01 -1.34204668E+00  2.20528637E+00 -6.43416236E-01 -1.34204668E+00
  2.20528637E+00 -6.43416236E-01 -1.34204668E+00  2.20528637E+00 -6.43416236E-01
 -2.95617096E+00 -2.60491512E+00 -2.26767462E+00 -2.95617096E+00 -2.60491512E+00
 -2.26767462E+00 -2.95617096E+00 -2.60491512E+00 -2.26767462E+00 -6.28266289E+00
 -3.68334630E+00 -1.73856355E+00 -6.28266289E+00 -3.68334630E+00 -1.73856355E+00
 -6.28266289E+00 -3.68334630E+00 -1.73856355E+00 -6.94293775E+00 -2.66674241E-01
  1.28951598E+00 -6.94293775E+00 -2.66674241E-01  1.28951598E+00 -6.94293775E+00
 -2.66674241E-01  1.28951598E+00 -3.29324173E+00  2.31340649E+00  2.79961878E+00
 -3.29324173E+00  2.31340649E+00  2.79961878E+00 -3.29324173E+00  2.31340649E+00
  2.79961878E+00 -1.17526580E+00  1.50465283E+00 -2.58029773E+00 -1.17526580E+00
  1.50465283E+00 -2.58029773E+00 -1.17526580E+00  1.50465283E+00 -2.58029773E+00
  3.02512220E+00 -8.25461871E-01  1.47079539E+00  3.02512220E+00 -8.25461871E-01
  1.47079539E+00  3.02512220E+00 -8.25461871E-01  1.47079539E+00  3.02512220E+00
 -8.25461871E-01  1.47079539E+00  3.02512220E+00 -8.25461871E-01  1.47079539E+00
  3.02512220E+00 -8.25461871E-01  1.47079539E+00  6.16335844E-01  3.98775250E+00
  2.20518299E-01  6.16335844E-01  3.98775250E+00  2.20518299E-01  6.16335844E-01
  3.98775250E+00  2.20518299E-01  6.16335844E-01  3.98775250E+00  2.20518299E-01
  6.16335844E-01  3.98775250E+00  2.20518299E-01  6.16335844E-01  3.98775250E+00
  2.20518299E-01  3.58032700E-01  4.70217126E+00  2.19282021E+00  3.58032700E-01
  4.70217126E+00  2.19282021E+00  3.58032700E-01  4.70217126E+00  2.19282021E+00
  2.38284094E+00  4.65005010E+00 -1.05135398E+00  2.38284094E+00  4.65005010E+00
 -1.05135398E+00  2.38284094E+00  4.65005010E+00 -1.05135398E+00  2.38284094E+00
  4.65005010E+00 -1.05135398E+00  2.38284094E+00  4.65005010E+00 -1.05135398E+00
  2.38284094E+00  4.65005010E+00 -1.05135398E+00  1.70297003E+00 -2.63519801E+00
  2.88736908E+00  1.70297003E+00 -2.63519801E+00  2.88736908E+00  1.70297003E+00
 -2.63519801E+00  2.88736908E+00  1.70297003E+00 -2.63519801E+00  2.88736908E+00
  1.70297003E+00 -2.63519801E+00  2.88736908E+00  1.70297003E+00 -2.63519801E+00
  2.88736908E+00  1.54807087E+00 -1.90227539E+00  4.81800294E+00  1.54807087E+00
 -1.90227539E+00  4.81800294E+00  1.54807087E+00 -1.90227539E+00  4.81800294E+00
 -2.05668302E-01 -2.94416491E+00  2.10306512E+00 -2.05668302E-01 -2.94416491E+00
  2.10306512E+00 -2.05668302E-01 -2.94416491E+00  2.10306512E+00  2.72178153E+00
 -4.45323532E+00  2.91847518E+00  2.72178153E+00 -4.45323532E+00  2.91847518E+00
  2.72178153E+00 -4.45323532E+00  2.91847518E+00
Num ILSW                                   I              100
ILSW                                       I   N=         100
           0           0           0           0           2           0
           0           0           0           0        4336          -1
           5           0           0           0           0           0
           0           0           1           0           0           0
           1           0           0           0           0           0
           0           0      100000           0          -1           0
           0           0           0           0           0           0
           0           0           0           1           0           0
           0 -2000000000           1           0           0           0
           0           0         131          52           0           0
           0           0          55           0           0           0
           0           0           0           0           0           1
           0           0           0           0           0           0
           0           0           0           0           0           0
           0           0           0           0           0           0
           0           0           0           0           0           0
           0           0           0           0
Num RLSW                                   I               52
RLSW                                       R   N=          52
  1.00000000E+00  1.00000000E+00  1.00000000E+00  1.00000000E+00  5.40000000E-01
  0.00000000E+00  0.00000000E+00  1.00000000E+00  0.00000000E+00  0.00000000E+00
  0.00000000E+00  0.00000000E+00  1.00000000E+00  0.00000000E+00  0.00000000E+00
  0.00000000E+00  0.00000000E+00  1.00000000E+00  0.00000000E+00  0.00000000E+00
  0.00000000E+00  0.00000000E+00  1.00000000E+00  0.00000000E+00  0.00000000E+00
  0.00000000E+00  0.00000000E+00  1.00000000E+00  0.00000000E+00  0.00000000E+00
  0.00000000E+00  0.00000000E+00  1.00000000E+00  0.00000000E+00  0.00000000E+00
  0.00000000E+00  0.00000000E+00  0.00000000E+00  1.00000000E+00  1.00000000E+00
  0.00000000E+00  1.00000000E+00  0.00000000E+00  0.00000000E+00  0.00000000E+00
  0.00000000E+00  0.00000000E+00  0.00000000E+00  0.00000000E+00  0.00000000E+00
  0.00000000E+00  0.00000000E+00
ECP-MxAtEC                                 I           250000
ECP-MaxLECP                                I               10
ECP-MaxAtL                                 I          2250000
ECP-MxTECP                                 I         11250000
ECP-LenNCZ                                 I                0
ECP-KFirst                                 I   N=         220
           0           0           0           0           0           0
           0           0           0           0           0           0
           0           0           0           0           0           0
           0           0           0           0           0           0
           0           0           0           0           0           0
           0           0           0           0           0           0
           0           0           0           0           0           0
           0           0           0           0           0           0
           0           0           0           0           0           0
           0           0           0           0           0           0
           0           0           0           0           0           0
           0           0           0           0           0           0
           0           0           0           0           0           0
           0           0           0           0           0           0
           0           0           0           0           0           0
           0           0           0           0           0           0
           0           0           0           0           0           0
           0           0           0           0           0           0
           0           0           0           0           0           0
           0           0           0           0           0           0
           0           0           0           0           0           0
           0           0           0           0           0           0
           0           0           0           0           0           0
           0           0           0           0           0           0
           0           0           0           0           0           0
           0           0           0           0           0           0
           0           0           0           0           0           0
           0           0           0           0           0           0
           0           0           0           0           0           0
           0           0           0           0           0           0
           0           0           0           0           0           0
           0           0           0           0           0           0
           0           0           0           0           0           0
           0           0           0           0           0           0
           0           0           0           0           0           0
           0           0           0           0           0           0
           0           0           0           0
ECP-KLast                                  I   N=         220
           0           0           0           0           0           0
           0           0           0           0           0           0
           0           0           0           0           0           0
           0           0           0           0           0           0
           0           0           0           0           0           0
           0           0           0           0           0           0
           0           0           0           0           0           0
           0           0           0           0           0           0
           0           0           0           0           0           0
           0           0           0           0           0           0
           0           0           0           0           0           0
           0           0           0           0           0           0
           0           0           0           0           0           0
           0           0           0           0           0           0
           0           0           0           0           0           0