 Entering Gaussian System, Link 0=g16
 Initial command:
 /opt/software/g16/l1.exe "/tmp/DA_R-20089.tmp/Gau-219837.inp" -scrdir="/tmp/DA_R-20089.tmp/"
 Entering Link 1 = /opt/software/g16/l1.exe PID=    219838.
  
 Copyright (c) 1988-2017, Gaussian, Inc.  All Rights Reserved.
  
 This is part of the Gaussian(R) 16 program.  It is based on
 the Gaussian(R) 09 system (copyright 2009, Gaussian, Inc.),
 the Gaussian(R) 03 system (copyright 2003, Gaussian, Inc.),
 the Gaussian(R) 98 system (copyright 1998, Gaussian, Inc.),
 the Gaussian(R) 94 system (copyright 1995, Gaussian, Inc.),
 the Gaussian 92(TM) system (copyright 1992, Gaussian, Inc.),
 the Gaussian 90(TM) system (copyright 1990, Gaussian, Inc.),
 the Gaussian 88(TM) system (copyright 1988, Gaussian, Inc.),
 the Gaussian 86(TM) system (copyright 1986, Carnegie Mellon
 University), and the Gaussian 82(TM) system (copyright 1983,
 Carnegie Mellon University). Gaussian is a federally registered
 trademark of Gaussian, Inc.
  
 This software contains proprietary and confidential information,
 including trade secrets, belonging to Gaussian, Inc.
  
 This software is provided under written license and may be
 used, copied, transmitted, or stored only in accord with that
 written license.
  
 The following legend is applicable only to US Government
 contracts under FAR:
  
                    RESTRICTED RIGHTS LEGEND
  
 Use, reproduction and disclosure by the US Government is
 subject to restrictions as set forth in subparagraphs (a)
 and (c) of the Commercial Computer Software - Restricted
 Rights clause in FAR 52.227-19.
  
 Gaussian, Inc.
 340 Quinnipiac St., Bldg. 40, Wallingford CT 06492
  
  
 ---------------------------------------------------------------
 Warning -- This program may not be used in any manner that
 competes with the business of Gaussian, Inc. or will provide
 assistance to any competitor of Gaussian, Inc.  The licensee
 of this program is prohibited from giving any competitor of
 Gaussian, Inc. access to this program.  By using this program,
 the user acknowledges that Gaussian, Inc. is engaged in the
 business of creating and licensing software in the field of
 computational chemistry and represents and warrants to the
 licensee that it is not a competitor of Gaussian, Inc. and that
 it will not use this program in any manner prohibited above.
 ---------------------------------------------------------------
  

 Cite this work as:
 Gaussian 16, Revision B.01,
 M. J. Frisch, G. W. Trucks, H. B. Schlegel, G. E. Scuseria, 
 M. A. Robb, J. R. Cheeseman, G. Scalmani, V. Barone, 
 G. A. Petersson, H. Nakatsuji, X. Li, M. Caricato, A. V. Marenich, 
 J. Bloino, B. G. Janesko, R. Gomperts, B. Mennucci, H. P. Hratchian, 
 J. V. Ortiz, A. F. Izmaylov, J. L. Sonnenberg, D. Williams-Young, 
 F. Ding, F. Lipparini, F. Egidi, J. Goings, B. Peng, A. Petrone, 
 T. Henderson, D. Ranasinghe, V. G. Zakrzewski, J. Gao, N. Rega, 
 G. Zheng, W. Liang, M. Hada, M. Ehara, K. Toyota, R. Fukuda, 
 J. Hasegawa, M. Ishida, T. Nakajima, Y. Honda, O. Kitao, H. Nakai, 
 T. Vreven, K. Throssell, J. A. Montgomery, Jr., J. E. Peralta, 
 F. Ogliaro, M. J. Bearpark, J. J. Heyd, E. N. Brothers, K. N. Kudin, 
 V. N. Staroverov, T. A. Keith, R. Kobayashi, J. Normand, 
 K. Raghavachari, A. P. Rendell, J. C. Burant, S. S. Iyengar, 
 J. Tomasi, M. Cossi, J. M. Millam, M. Klene, C. Adamo, R. Cammi, 
 J. W. Ochterski, R. L. Martin, K. Morokuma, O. Farkas, 
 J. B. Foresman, and D. J. Fox, Gaussian, Inc., Wallingford CT, 2016.
 
 ******************************************
 Gaussian 16:  ES64L-G16RevB.01 20-Dec-2017
                12-Sep-2005 
 ******************************************
 %nproc=28
 Will use up to   28 processors via shared memory.
 %chk=DA_R
 -----------------------------------
 # M062X/Def2SVP EM=GD3 POP=NBO6Read
 -----------------------------------
 1/38=1,163=2,172=1/1;
 2/12=2,17=6,18=5,40=1/2;
 3/5=43,7=101,11=2,25=1,30=1,74=-55,124=31/1,2,3;
 4//1;
 5/5=2,38=5/2;
 6/7=2,8=2,9=2,10=2,28=1,40=2,113=1,114=1,124=2103/1,12;
 99/5=1,9=1/99;
 ----------------
 Reactant complex
 ----------------
 Symbolic Z-matrix:
 Charge =  0 Multiplicity = 1
 6                    -0.07927   2.36129  -1.1543 
 6                     0.0664    2.00208   0.12645 
 1                     0.66323   2.14906  -1.92334 
 1                    -0.97398   2.91026  -1.44333 
 1                    -0.69076   2.21682   0.88517 
 6                    -0.29138  -1.40669  -2.56922 
 6                     0.01884  -2.25697  -1.58354 
 6                    -0.02656  -1.90798  -0.15882 
 6                    -0.83704  -0.98649   0.38578 
 1                    -0.57564  -0.37208  -2.35317 
 1                    -0.25087  -1.71559  -3.61502 
 1                     0.35453  -3.26824  -1.83136 
 1                     0.66309  -2.44402   0.50492 
 1                    -1.58175  -0.44271  -0.202 
 8                     1.09492   1.32677   0.67038 
 6                    -0.73833  -0.64238   1.81565 
 1                     0.01512  -1.23625   2.39058 
 8                    -1.40009   0.20998   2.34972 
 6                     2.11435   0.90984  -0.19882 
 1                     2.84926   0.36516   0.40462 
 1                     1.71453   0.24391  -0.98353 
 1                     2.60396   1.77361  -0.67913 
 
                          Input orientation:                          
 ---------------------------------------------------------------------
 Center     Atomic      Atomic             Coordinates (Angstroms)
 Number     Number       Type             X           Y           Z
 ---------------------------------------------------------------------
      1          6           0       -0.079272    2.361291   -1.154295
      2          6           0        0.066395    2.002084    0.126446
      3          1           0        0.663231    2.149063   -1.923336
      4          1           0       -0.973979    2.910255   -1.443332
      5          1           0       -0.690757    2.216824    0.885170
      6          6           0       -0.291375   -1.406689   -2.569216
      7          6           0        0.018835   -2.256973   -1.583537
      8          6           0       -0.026558   -1.907981   -0.158817
      9          6           0       -0.837041   -0.986493    0.385775
     10          1           0       -0.575639   -0.372079   -2.353173
     11          1           0       -0.250868   -1.715586   -3.615019
     12          1           0        0.354533   -3.268238   -1.831356
     13          1           0        0.663094   -2.444019    0.504921
     14          1           0       -1.581754   -0.442709   -0.202003
     15          8           0        1.094918    1.326766    0.670376
     16          6           0       -0.738329   -0.642377    1.815647
     17          1           0        0.015116   -1.236250    2.390580
     18          8           0       -1.400086    0.209978    2.349717
     19          6           0        2.114353    0.909843   -0.198821
     20          1           0        2.849257    0.365160    0.404622
     21          1           0        1.714525    0.243911   -0.983534
     22          1           0        2.603955    1.773611   -0.679129
 ---------------------------------------------------------------------
                    Distance matrix (angstroms):
                    1          2          3          4          5
     1  C    0.000000
     2  C    1.338113   0.000000
     3  H    1.089851   2.139958   0.000000
     4  H    1.088763   2.090779   1.868227   0.000000
     5  H    2.134058   1.093185   3.118586   2.446014   0.000000
     6  C    4.030467   4.360542   3.737888   4.513266   5.022164
     7  C    4.639206   4.589757   4.465855   5.263609   5.158769
     8  C    4.384112   3.921559   4.477605   5.075725   4.306401
     9  C    3.762139   3.132897   4.173071   4.306858   3.245310
    10  H    3.025723   3.492473   2.841780   3.429315   4.147594
    11  H    4.765032   5.283965   4.316582   5.161155   5.992416
    12  H    5.686668   5.629592   5.426869   6.331610   6.209513
    13  H    5.137617   4.501902   5.195463   5.928233   4.868363
    14  H    3.320652   2.966696   3.836695   3.626659   3.008145
    15  O    2.403828   1.345278   2.754971   3.354927   2.006732
    16  C    4.275153   3.239468   4.872012   4.826766   3.007172
    17  H    5.051470   3.951676   5.521799   5.733297   3.832523
    18  O    4.318657   3.210163   5.126042   4.675498   2.583694
    19  C    2.798504   2.343698   2.572037   3.884360   3.279006
    20  H    3.871827   3.240559   3.657924   4.950715   4.023840
    21  H    2.780317   2.653217   2.370243   3.814297   3.629025
    22  H    2.787626   2.672146   2.335685   3.831133   3.674044
                    6          7          8          9         10
     6  C    0.000000
     7  C    1.338199   0.000000
     8  C    2.476175   1.467543   0.000000
     9  C    3.034187   2.494962   1.342611   0.000000
    10  H    1.094485   2.120982   2.734170   2.819162   0.000000
    11  H    1.091220   2.119613   3.468813   4.108714   1.871562
    12  H    2.104044   1.093967   2.189273   3.397334   3.086300
    13  H    3.381920   2.193562   1.097044   2.094990   3.741136
    14  H    2.863221   2.786050   2.137176   1.093518   2.375876
    15  O    4.459657   4.368211   3.522621   3.027314   3.849504
    16  C    4.473362   3.838576   2.450894   1.474006   4.180740
    17  H    4.972179   4.103108   2.636737   2.192668   4.857878
    18  O    5.295163   4.854861   3.558802   2.367621   4.809956
    19  C    4.095439   4.041950   3.539100   3.556483   3.677039
    20  H    4.674049   4.340466   3.708766   3.926336   4.458572
    21  H    3.043436   3.080550   2.888281   3.146330   2.738650
    22  H    4.697837   4.873028   4.554607   4.537912   4.185239
                   11         12         13         14         15
    11  H    0.000000
    12  H    2.441043   0.000000
    13  H    4.282505   2.496545   0.000000
    14  H    3.878163   3.793101   3.089389   0.000000
    15  O    5.425095   5.284023   3.799035   3.325156   0.000000
    16  C    5.557115   4.624946   2.632091   2.195938   2.924032
    17  H    6.030566   4.697757   2.331157   3.146615   3.270187
    18  O    6.372329   5.714722   3.834538   2.640129   3.208184
    19  C    4.915034   4.818558   3.721531   3.935812   1.403059
    20  H    5.486146   4.942148   3.561019   4.544723   2.018172
    21  H    3.824541   3.860514   3.247456   3.456544   2.071692
    22  H    5.379959   5.639838   4.791380   4.760240   2.073168
                   16         17         18         19         20
    16  C    0.000000
    17  H    1.118442   0.000000
    18  O    1.204019   2.023868   0.000000
    19  C    3.821683   3.964531   4.397288   0.000000
    20  H    3.984582   3.813253   4.675938   1.095859   0.000000
    21  H    3.825887   4.057525   4.562074   1.104130   1.797024
    22  H    4.819934   5.018412   5.258441   1.102951   1.793997
                   21         22
    21  H    0.000000
    22  H    1.795475   0.000000
 Stoichiometry    C8H12O2
 Framework group  C1[X(C8H12O2)]
 Deg. of freedom    60
 Full point group                 C1      NOp   1
 Largest Abelian subgroup         C1      NOp   1
 Largest concise Abelian subgroup C1      NOp   1
                         Standard orientation:                         
 ---------------------------------------------------------------------
 Center     Atomic      Atomic             Coordinates (Angstroms)
 Number     Number       Type             X           Y           Z
 ---------------------------------------------------------------------
      1          6           0        1.430715   -1.808033   -1.188720
      2          6           0        1.795475   -0.704497   -0.525618
      3          1           0        0.929398   -2.652133   -0.715483
      4          1           0        1.661607   -1.878660   -2.250372
      5          1           0        2.292186    0.136775   -1.016121
      6          6           0       -2.529105   -1.234238   -0.703692
      7          6           0       -2.718017   -0.227726    0.157715
      8          6           0       -1.694517    0.772453    0.482943
      9          6           0       -0.710181    1.166987   -0.340481
     10          1           0       -1.564338   -1.378462   -1.200002
     11          1           0       -3.324642   -1.949143   -0.920008
     12          1           0       -3.674044   -0.141118    0.682382
     13          1           0       -1.742708    1.224202    1.481494
     14          1           0       -0.621924    0.796228   -1.365435
     15          8           0        1.600826   -0.436816    0.778311
     16          6           0        0.326151    2.110228    0.116693
     17          1           0        0.189463    2.488282    1.160390
     18          8           0        1.260945    2.460701   -0.556353
     19          6           0        0.901173   -1.394487    1.527930
     20          1           0        0.819204   -1.006641    2.549577
     21          1           0       -0.108835   -1.557985    1.112894
     22          1           0        1.440305   -2.356551    1.544391
 ---------------------------------------------------------------------
 Rotational constants (GHZ):           1.2755416           1.0367612           0.7359195
 Standard basis: def2SVP (5D, 7F)
 There are   210 symmetry adapted cartesian basis functions of A   symmetry.
 There are   200 symmetry adapted basis functions of A   symmetry.
   200 basis functions,   334 primitive gaussians,   210 cartesian basis functions
    38 alpha electrons       38 beta electrons
       nuclear repulsion energy       511.1419780523 Hartrees.
 NAtoms=   22 NActive=   22 NUniq=   22 SFac= 1.00D+00 NAtFMM=   60 NAOKFM=F Big=F
 Integral buffers will be    131072 words long.
 Raffenetti 2 integral format.
 Two-electron integral symmetry is turned on.
 Nuclear repulsion after empirical dispersion term =      511.1410090020 Hartrees.
 One-electron integrals computed using PRISM.
   1 Symmetry operations used in ECPInt.
 ECPInt:  NShTT=    4656 NPrTT=   16456 LenC2=    4593 LenP2D=   12641.
 LDataN:  DoStor=T MaxTD1= 4 Len=   56
 NBasis=   200 RedAO= T EigKep=  1.13D-03  NBF=   200
 NBsUse=   200 1.00D-06 EigRej= -1.00D+00 NBFU=   200
 ExpMin= 1.22D-01 ExpMax= 2.27D+03 ExpMxC= 3.41D+02 IAcc=3 IRadAn=         5 AccDes= 0.00D+00
 Harris functional with IExCor= 1009 and IRadAn=       5 diagonalized for initial guess.
 HarFok:  IExCor= 1009 AccDes= 0.00D+00 IRadAn=         5 IDoV= 1 UseB2=F ITyADJ=14
 ICtDFT=  3500011 ScaDFX=  1.000000  1.000000  1.000000  1.000000
 FoFCou: FMM=F IPFlag=           0 FMFlag=      100000 FMFlg1=           0
         NFxFlg=           0 DoJE=T BraDBF=F KetDBF=T FulRan=T
         wScrn=  0.000000 ICntrl=       500 IOpCl=  0 I1Cent=   200000004 NGrid=           0
         NMat0=    1 NMatS0=      1 NMatT0=    0 NMatD0=    1 NMtDS0=    0 NMtDT0=    0
 Petite list used in FoFCou.
 Requested convergence on RMS density matrix=1.00D-08 within 128 cycles.
 Requested convergence on MAX density matrix=1.00D-06.
 Requested convergence on             energy=1.00D-06.
 No special actions if energy rises.
 Integral accuracy reduced to 1.0D-05 until final iterations.
 Initial convergence to 1.0D-05 achieved.  Increase integral accuracy.
 SCF Done:  E(RM062X) =  -461.870061841     A.U. after   16 cycles
            NFock= 16  Conv=0.57D-08     -V/T= 2.0100

 **********************************************************************

            Population analysis using the SCF Density.

 **********************************************************************

 Orbital symmetries:
       Occupied  (A) (A) (A) (A) (A) (A) (A) (A) (A) (A) (A) (A)
                 (A) (A) (A) (A) (A) (A) (A) (A) (A) (A) (A) (A)
                 (A) (A) (A) (A) (A) (A) (A) (A) (A) (A) (A) (A)
                 (A) (A)
       Virtual   (A) (A) (A) (A) (A) (A) (A) (A) (A) (A) (A) (A)
                 (A) (A) (A) (A) (A) (A) (A) (A) (A) (A) (A) (A)
                 (A) (A) (A) (A) (A) (A) (A) (A) (A) (A) (A) (A)
                 (A) (A) (A) (A) (A) (A) (A) (A) (A) (A) (A) (A)
                 (A) (A) (A) (A) (A) (A) (A) (A) (A) (A) (A) (A)
                 (A) (A) (A) (A) (A) (A) (A) (A) (A) (A) (A) (A)
                 (A) (A) (A) (A) (A) (A) (A) (A) (A) (A) (A) (A)
                 (A) (A) (A) (A) (A) (A) (A) (A) (A) (A) (A) (A)
                 (A) (A) (A) (A) (A) (A) (A) (A) (A) (A) (A) (A)
                 (A) (A) (A) (A) (A) (A) (A) (A) (A) (A) (A) (A)
                 (A) (A) (A) (A) (A) (A) (A) (A) (A) (A) (A) (A)
                 (A) (A) (A) (A) (A) (A) (A) (A) (A) (A) (A) (A)
                 (A) (A) (A) (A) (A) (A) (A) (A) (A) (A) (A) (A)
                 (A) (A) (A) (A) (A) (A)
 The electronic state is 1-A.
 Alpha  occ. eigenvalues --  -19.66341 -19.62456 -10.63803 -10.60781 -10.60736
 Alpha  occ. eigenvalues --  -10.58692 -10.57730 -10.57180 -10.56634 -10.53848
 Alpha  occ. eigenvalues --   -1.18196  -1.15079  -0.92179  -0.84978  -0.84659
 Alpha  occ. eigenvalues --   -0.78963  -0.73583  -0.65941  -0.64361  -0.62649
 Alpha  occ. eigenvalues --   -0.59076  -0.57018  -0.55285  -0.54900  -0.54323
 Alpha  occ. eigenvalues --   -0.51313  -0.49872  -0.47701  -0.47012  -0.44850
 Alpha  occ. eigenvalues --   -0.43935  -0.43494  -0.41465  -0.40419  -0.38939
 Alpha  occ. eigenvalues --   -0.32569  -0.30805  -0.29036
 Alpha virt. eigenvalues --   -0.03963   0.05498   0.06788   0.09701   0.10920
 Alpha virt. eigenvalues --    0.11579   0.12585   0.13788   0.15325   0.15924
 Alpha virt. eigenvalues --    0.16851   0.17178   0.17354   0.18484   0.19134
 Alpha virt. eigenvalues --    0.21266   0.22443   0.28236   0.30911   0.32993
 Alpha virt. eigenvalues --    0.34224   0.34894   0.37450   0.40290   0.42021
 Alpha virt. eigenvalues --    0.43690   0.45755   0.47037   0.48384   0.50056
 Alpha virt. eigenvalues --    0.50834   0.52549   0.54524   0.55067   0.56290
 Alpha virt. eigenvalues --    0.58462   0.59141   0.60056   0.61743   0.62923
 Alpha virt. eigenvalues --    0.65604   0.66673   0.66973   0.68679   0.69374
 Alpha virt. eigenvalues --    0.70668   0.71091   0.71731   0.72410   0.73189
 Alpha virt. eigenvalues --    0.74267   0.75030   0.75593   0.76854   0.79882
 Alpha virt. eigenvalues --    0.81195   0.81485   0.82850   0.84721   0.87391
 Alpha virt. eigenvalues --    0.90264   0.91964   0.93299   0.96989   0.99854
 Alpha virt. eigenvalues --    1.05976   1.09927   1.10717   1.13647   1.14783
 Alpha virt. eigenvalues --    1.17009   1.19937   1.22853   1.27526   1.28242
 Alpha virt. eigenvalues --    1.29619   1.30273   1.31913   1.32093   1.34011
 Alpha virt. eigenvalues --    1.39150   1.45763   1.50600   1.52065   1.55504
 Alpha virt. eigenvalues --    1.56594   1.60596   1.61865   1.62691   1.63221
 Alpha virt. eigenvalues --    1.66926   1.70570   1.71239   1.73563   1.75091
 Alpha virt. eigenvalues --    1.77184   1.77513   1.78991   1.80071   1.81086
 Alpha virt. eigenvalues --    1.83193   1.83607   1.84695   1.86009   1.86817
 Alpha virt. eigenvalues --    1.88335   1.90805   1.91798   1.93102   1.94086
 Alpha virt. eigenvalues --    1.94983   1.98561   1.99473   2.00865   2.04157
 Alpha virt. eigenvalues --    2.07710   2.09132   2.12816   2.14523   2.15603
 Alpha virt. eigenvalues --    2.20576   2.22225   2.27919   2.28973   2.30469
 Alpha virt. eigenvalues --    2.31362   2.33612   2.36312   2.38033   2.39878
 Alpha virt. eigenvalues --    2.43354   2.45894   2.46001   2.49479   2.54613
 Alpha virt. eigenvalues --    2.55808   2.63711   2.64560   2.67102   2.72253
 Alpha virt. eigenvalues --    2.73501   2.76496   2.79212   2.81349   2.83651
 Alpha virt. eigenvalues --    2.85040   2.85999   2.89493   2.94596   2.95397
 Alpha virt. eigenvalues --    2.96289   3.08656   3.10576   3.14197   3.18515
 Alpha virt. eigenvalues --    3.21932   3.22593   3.40366   3.51059   3.52072
 Alpha virt. eigenvalues --    3.63364   3.68513
          Condensed to atoms (all electrons):
               1          2          3          4          5          6
     1  C    4.848478   0.641262   0.393925   0.378488  -0.047554  -0.003275
     2  C    0.641262   4.587866  -0.027288   0.000055   0.413756  -0.001064
     3  H    0.393925  -0.027288   0.619077  -0.038600   0.006074  -0.000270
     4  H    0.378488   0.000055  -0.038600   0.610119  -0.009321  -0.000003
     5  H   -0.047554   0.413756   0.006074  -0.009321   0.588801  -0.000011
     6  C   -0.003275  -0.001064  -0.000270  -0.000003  -0.000011   4.725893
     7  C    0.000067  -0.000229   0.000056   0.000001   0.000032   0.664335
     8  C   -0.000095   0.001254  -0.000029  -0.000007   0.000542  -0.050538
     9  C   -0.004817  -0.002485  -0.000431   0.000156  -0.005149  -0.017957
    10  H    0.010173   0.002361   0.001374   0.000094   0.000022   0.386521
    11  H    0.000058   0.000019   0.000011  -0.000001  -0.000000   0.386123
    12  H   -0.000003  -0.000008  -0.000002   0.000000  -0.000000  -0.042113
    13  H   -0.000036   0.000083  -0.000004   0.000000   0.000003   0.008646
    14  H    0.000365   0.005418  -0.000123   0.000083   0.000760   0.006062
    15  O   -0.064956   0.338736  -0.008653   0.003727  -0.036417   0.000242
    16  C    0.000165  -0.004455   0.000004  -0.000044  -0.001263   0.000587
    17  H   -0.000096  -0.000065  -0.000001  -0.000000   0.000779   0.000041
    18  O    0.000062  -0.002080  -0.000003  -0.000006   0.013816   0.000008
    19  C   -0.003153  -0.056741   0.008757  -0.000194   0.005167  -0.001500
    20  H    0.000416   0.006223  -0.000119  -0.000015  -0.000224  -0.000012
    21  H    0.007752  -0.003635  -0.000255  -0.000033   0.000055   0.005185
    22  H    0.009221  -0.010376  -0.000404   0.000151  -0.000371   0.000121
               7          8          9         10         11         12
     1  C    0.000067  -0.000095  -0.004817   0.010173   0.000058  -0.000003
     2  C   -0.000229   0.001254  -0.002485   0.002361   0.000019  -0.000008
     3  H    0.000056  -0.000029  -0.000431   0.001374   0.000011  -0.000002
     4  H    0.000001  -0.000007   0.000156   0.000094  -0.000001   0.000000
     5  H    0.000032   0.000542  -0.005149   0.000022  -0.000000  -0.000000
     6  C    0.664335  -0.050538  -0.017957   0.386521   0.386123  -0.042113
     7  C    4.785865   0.303004  -0.031302  -0.013758  -0.015514   0.412290
     8  C    0.303004   5.085657   0.332041  -0.029401   0.010538  -0.051856
     9  C   -0.031302   0.332041   5.542164   0.009320  -0.000060   0.009693
    10  H   -0.013758  -0.029401   0.009320   0.600309  -0.040539   0.007947
    11  H   -0.015514   0.010538  -0.000060  -0.040539   0.610410  -0.013671
    12  H    0.412290  -0.051856   0.009693   0.007947  -0.013671   0.641688
    13  H   -0.042855   0.416931  -0.062368   0.000146  -0.000262  -0.006970
    14  H   -0.017210  -0.019815   0.360663   0.002542  -0.000065   0.000096
    15  O   -0.000139  -0.004079   0.003498  -0.000441  -0.000002  -0.000002
    16  C    0.007155   0.014471   0.194376  -0.000202  -0.000006  -0.000214
    17  H   -0.000023   0.018504  -0.158727   0.000002   0.000000   0.000027
    18  O   -0.000166   0.008575  -0.104673  -0.000005  -0.000000   0.000001
    19  C   -0.003162   0.003022   0.001092  -0.001149   0.000028  -0.000013
    20  H    0.000069   0.000563  -0.000240   0.000040  -0.000001   0.000001
    21  H    0.003838   0.002016  -0.006705   0.002866  -0.000021   0.000067
    22  H   -0.000014  -0.000022   0.000454  -0.000264  -0.000003   0.000001
              13         14         15         16         17         18
     1  C   -0.000036   0.000365  -0.064956   0.000165  -0.000096   0.000062
     2  C    0.000083   0.005418   0.338736  -0.004455  -0.000065  -0.002080
     3  H   -0.000004  -0.000123  -0.008653   0.000004  -0.000001  -0.000003
     4  H    0.000000   0.000083   0.003727  -0.000044  -0.000000  -0.000006
     5  H    0.000003   0.000760  -0.036417  -0.001263   0.000779   0.013816
     6  C    0.008646   0.006062   0.000242   0.000587   0.000041   0.000008
     7  C   -0.042855  -0.017210  -0.000139   0.007155  -0.000023  -0.000166
     8  C    0.416931  -0.019815  -0.004079   0.014471   0.018504   0.008575
     9  C   -0.062368   0.360663   0.003498   0.194376  -0.158727  -0.104673
    10  H    0.000146   0.002542  -0.000441  -0.000202   0.000002  -0.000005
    11  H   -0.000262  -0.000065  -0.000002  -0.000006   0.000000  -0.000000
    12  H   -0.006970   0.000096  -0.000002  -0.000214   0.000027   0.000001
    13  H    0.635307   0.007603  -0.000047  -0.008616   0.009139   0.000166
    14  H    0.007603   0.610399  -0.001803  -0.019365   0.008031   0.006583
    15  O   -0.000047  -0.001803   7.912928   0.010399   0.000102  -0.002360
    16  C   -0.008616  -0.019365   0.010399   4.553948   0.431463   0.644698
    17  H    0.009139   0.008031   0.000102   0.431463   0.718175  -0.039099
    18  O    0.000166   0.006583  -0.002360   0.644698  -0.039099   7.715265
    19  C    0.000200  -0.000192   0.297353  -0.001167  -0.000063  -0.000073
    20  H    0.000217   0.000007  -0.025578  -0.000263   0.000114   0.000015
    21  H   -0.000571   0.000223  -0.035116  -0.000741  -0.000080   0.000037
    22  H    0.000004  -0.000025  -0.028080   0.000186   0.000013  -0.000010
              19         20         21         22
     1  C   -0.003153   0.000416   0.007752   0.009221
     2  C   -0.056741   0.006223  -0.003635  -0.010376
     3  H    0.008757  -0.000119  -0.000255  -0.000404
     4  H   -0.000194  -0.000015  -0.000033   0.000151
     5  H    0.005167  -0.000224   0.000055  -0.000371
     6  C   -0.001500  -0.000012   0.005185   0.000121
     7  C   -0.003162   0.000069   0.003838  -0.000014
     8  C    0.003022   0.000563   0.002016  -0.000022
     9  C    0.001092  -0.000240  -0.006705   0.000454
    10  H   -0.001149   0.000040   0.002866  -0.000264
    11  H    0.000028  -0.000001  -0.000021  -0.000003
    12  H   -0.000013   0.000001   0.000067   0.000001
    13  H    0.000200   0.000217  -0.000571   0.000004
    14  H   -0.000192   0.000007   0.000223  -0.000025
    15  O    0.297353  -0.025578  -0.035116  -0.028080
    16  C   -0.001167  -0.000263  -0.000741   0.000186
    17  H   -0.000063   0.000114  -0.000080   0.000013
    18  O   -0.000073   0.000015   0.000037  -0.000010
    19  C    4.457587   0.399449   0.392218   0.400725
    20  H    0.399449   0.610755  -0.024732  -0.023569
    21  H    0.392218  -0.024732   0.662901  -0.044953
    22  H    0.400725  -0.023569  -0.044953   0.645796
 Mulliken charges:
               1
     1  C   -0.166448
     2  C    0.111394
     3  H    0.046902
     4  H    0.055351
     5  H    0.070504
     6  C   -0.067021
     7  C   -0.052340
     8  C   -0.041277
     9  C   -0.058543
    10  H    0.062042
    11  H    0.062959
    12  H    0.043042
    13  H    0.043286
    14  H    0.049764
    15  O   -0.359314
    16  C    0.178885
    17  H    0.011766
    18  O   -0.240751
    19  C    0.101808
    20  H    0.056885
    21  H    0.039686
    22  H    0.051420
 Sum of Mulliken charges =  -0.00000
 Mulliken charges with hydrogens summed into heavy atoms:
               1
     1  C   -0.064195
     2  C    0.181898
     6  C    0.057980
     7  C   -0.009298
     8  C    0.002009
     9  C   -0.008780
    15  O   -0.359314
    16  C    0.190651
    18  O   -0.240751
    19  C    0.249799
 Electronic spatial extent (au):  <R**2>=           1717.6840
 Charge=             -0.0000 electrons
 Dipole moment (field-independent basis, Debye):
    X=             -2.9851    Y=             -2.3026    Z=              1.5122  Tot=              4.0620
 Quadrupole moment (field-independent basis, Debye-Ang):
   XX=            -62.1247   YY=            -63.7138   ZZ=            -57.5077
   XY=             -2.8622   XZ=             -1.1310   YZ=              2.8452
 Traceless Quadrupole moment (field-independent basis, Debye-Ang):
   XX=             -1.0093   YY=             -2.5984   ZZ=              3.6077
   XY=             -2.8622   XZ=             -1.1310   YZ=              2.8452
 Octapole moment (field-independent basis, Debye-Ang**2):
  XXX=            -10.4051  YYY=            -10.5426  ZZZ=              6.6458  XYY=            -10.6088
  XXY=             -6.8436  XXZ=              3.6814  XZZ=              5.9466  YZZ=             -0.9626
  YYZ=             10.6143  XYZ=             -3.4409
 Hexadecapole moment (field-independent basis, Debye-Ang**3):
 XXXX=          -1065.0579 YYYY=           -863.9159 ZZZZ=           -325.6203 XXXY=             41.2577
 XXXZ=            -17.8764 YYYX=            -10.1509 YYYZ=              9.7778 ZZZX=             -2.8699
 ZZZY=             -4.6088 XXYY=           -344.5111 XXZZ=           -239.4149 YYZZ=           -191.3138
 XXYZ=              8.7562 YYXZ=             19.3133 ZZXY=             -4.1351
 N-N= 5.111410090020D+02 E-N=-2.096499684956D+03  KE= 4.572827425994D+02
 Running external command "gaunbo6 R"
         input file       "/tmp/DA_R-20089.tmp/Gau-219838.EIn"
         output file      "/tmp/DA_R-20089.tmp/Gau-219838.EOu"
         message file     "/tmp/DA_R-20089.tmp/Gau-219838.EMs"
         fchk file        "/tmp/DA_R-20089.tmp/Gau-219838.EFC"
         mat. el file     "/tmp/DA_R-20089.tmp/Gau-219838.EUF"

 Writing WrtUnf unformatted file "/tmp/DA_R-20089.tmp/Gau-219838.EUF"
 Gaussian matrix elements                                         Version   2 NLab=11 Len12L=8 Len4L=8
 Write SHELL TO ATOM MAP                   from file     0 offset           0 length                  96 to matrix element file.
 Write SHELL TYPES                         from file     0 offset           0 length                  96 to matrix element file.
 Write NUMBER OF PRIMITIVES PER SHELL      from file     0 offset           0 length                  96 to matrix element file.
 Write PRIMITIVE EXPONENTS                 from file     0 offset           0 length                 180 to matrix element file.
 Write CONTRACTION COEFFICIENTS            from file     0 offset           0 length                 180 to matrix element file.
 Write P(S=P) CONTRACTION COEFFICIENTS     from file     0 offset           0 length                 180 to matrix element file.
 Write COORDINATES OF EACH SHELL           from file     0 offset           0 length                 288 to matrix element file.
 Write BONDS PER ATOM                      from file     0 offset           0 length                  22 to matrix element file.
 Write BONDED ATOMS                        from file     0 offset           0 length                  40 to matrix element file.
 Write BOND TYPES                          from file     0 offset           0 length                  40 to matrix element file.
 Write GAUSSIAN SCALARS                    from file   501 offset           0 to matrix element file.
 Write INTEGER ISO                         from file     0 offset           0 length                  22 to matrix element file.
 Write INTEGER SPIN                        from file     0 offset           0 length                  22 to matrix element file.
 Write REAL ZEFFECTIVE                     from file     0 offset           0 length                  22 to matrix element file.
 Write REAL GFACTOR                        from file     0 offset           0 length                  22 to matrix element file.
 Write REAL ZNUCLEAR                       from file     0 offset           0 length                  22 to matrix element file.
 Write MULLIKEN CHARGES                    from file     0 offset           0 length                  22 to matrix element file.
 Write NUCLEAR GRADIENT                    from file 10584 offset           0 length                  66 to matrix element file.
 Array NUCLEAR FORCE CONSTANTS              on  file 10585 does not exist.
 Write ELECTRIC DIPOLE MOMENT              from file     0 offset           0 length                   3 to matrix element file.
 Write NON-ADIABATIC COUPLING              from file 10810 offset           0 length                  66 to matrix element file.
 Write OVERLAP                             from file 10514 offset           0 length               20100 to matrix element file.
 Write CORE HAMILTONIAN ALPHA              from file 10515 offset           0 length               20100 to matrix element file.
 Write CORE HAMILTONIAN BETA               from file 10515 offset       20100 length               20100 to matrix element file.
 Write KINETIC ENERGY                      from file 10516 offset           0 length               20100 to matrix element file.
 Write ORTHOGONAL BASIS                    from file 10685 offset           0 length               40000 to matrix element file.
 Write DIPOLE INTEGRALS                    from file 10518 offset           0 length               60300 to matrix element file.
 Array DIP VEL INTEGRALS                    on  file 10572 does not exist.
 Array R X DEL INTEGRALS                    on  file 10572 does not exist.
 Write ALPHA ORBITAL ENERGIES              from file     0 offset           0 length                 200 to matrix element file.
 Write ALPHA MO COEFFICIENTS               from file 10524 offset           0 length               40000 to matrix element file.
 Write ALPHA DENSITY MATRIX                from file     0 offset           0 length               20100 to matrix element file.
 Write ALPHA SCF DENSITY MATRIX            from file 10528 offset           0 length               20100 to matrix element file.
 Write ALPHA FOCK MATRIX                   from file 10536 offset           0 length               20100 to matrix element file.
 Write ALPHA SCF DENSITY                   from file     0 offset           0 length               20100 to matrix element file.
 No 2e integrals to process.
 Perform NBO analysis...

 *********************************** NBO 7.0 ***********************************
             N A T U R A L   A T O M I C   O R B I T A L   A N D
          N A T U R A L   B O N D   O R B I T A L   A N A L Y S I S
 ***************************** Yang Wang (I101673) *****************************
  (c) Copyright 1996-2019 Board of Regents of the University of Wisconsin System
      on behalf of the Theoretical Chemistry Institute.  All rights reserved.

          Cite this program [NBO 7.0.4 (28-Mar-2019)] as:

          NBO 7.0.  E. D. Glendening, J. K. Badenhoop, A. E. Reed,
          J. E. Carpenter, J. A. Bohmann, C. M. Morales, P. Karafiloglou,
          C. R. Landis, and F. Weinhold, Theoretical Chemistry Institute,
          University of Wisconsin, Madison, WI (2018)

       /NOBOND / : No two-center NBO search
       /MCB    / : Search for 1-center NBOs
       /AONAO  / : Write the AO to NAO transformation to lfn33

 Filename set to /tmp/DA_R-20089.tmp/Gau-219838

 Job title:  Reactant complex


 NATURAL POPULATIONS:  Natural atomic orbital occupancies

  NAO Atom No lang   Type(AO)    Occupancy      Energy
 -------------------------------------------------------
   1    C  1  s      Cor( 1s)     1.99996     -10.53773
   2    C  1  s      Val( 2s)     1.05207      -0.13778
   3    C  1  s      Ryd( 3s)     0.00092       0.63547
   4    C  1  px     Val( 2p)     1.16950      -0.10838
   5    C  1  px     Ryd( 3p)     0.00318       0.67089
   6    C  1  py     Val( 2p)     1.15063      -0.05044
   7    C  1  py     Ryd( 3p)     0.00292       0.64176
   8    C  1  pz     Val( 2p)     1.19958      -0.05286
   9    C  1  pz     Ryd( 3p)     0.00248       0.84174
  10    C  1  dxy    Ryd( 3d)     0.00073       2.21790
  11    C  1  dxz    Ryd( 3d)     0.00047       2.08087
  12    C  1  dyz    Ryd( 3d)     0.00073       2.37144
  13    C  1  dx2y2  Ryd( 3d)     0.00064       2.15167
  14    C  1  dz2    Ryd( 3d)     0.00055       2.38194

  15    C  2  s      Cor( 1s)     1.99996     -10.60708
  16    C  2  s      Val( 2s)     0.91759      -0.10126
  17    C  2  s      Ryd( 3s)     0.00178       0.65413
  18    C  2  px     Val( 2p)     0.99724      -0.10049
  19    C  2  px     Ryd( 3p)     0.00242       0.69952
  20    C  2  py     Val( 2p)     1.12756      -0.05360
  21    C  2  py     Ryd( 3p)     0.00635       0.79540
  22    C  2  pz     Val( 2p)     0.76617       0.03007
  23    C  2  pz     Ryd( 3p)     0.00824       0.68934
  24    C  2  dxy    Ryd( 3d)     0.00099       2.20500
  25    C  2  dxz    Ryd( 3d)     0.00183       2.06436
  26    C  2  dyz    Ryd( 3d)     0.00156       2.44224
  27    C  2  dx2y2  Ryd( 3d)     0.00075       2.13559
  28    C  2  dz2    Ryd( 3d)     0.00205       2.33021

  29    H  3  s      Val( 1s)     0.78775       0.10203
  30    H  3  s      Ryd( 2s)     0.00096       0.41547
  31    H  3  px     Ryd( 2p)     0.00033       1.85621
  32    H  3  py     Ryd( 2p)     0.00062       2.20124
  33    H  3  pz     Ryd( 2p)     0.00021       1.96468

  34    H  4  s      Val( 1s)     0.77048       0.11858
  35    H  4  s      Ryd( 2s)     0.00080       0.35930
  36    H  4  px     Ryd( 2p)     0.00016       1.76925
  37    H  4  py     Ryd( 2p)     0.00006       1.84390
  38    H  4  pz     Ryd( 2p)     0.00092       2.42382

  39    H  5  s      Val( 1s)     0.77566       0.12122
  40    H  5  s      Ryd( 2s)     0.00267       0.39256
  41    H  5  px     Ryd( 2p)     0.00026       1.87569
  42    H  5  py     Ryd( 2p)     0.00079       2.18572
  43    H  5  pz     Ryd( 2p)     0.00028       2.03116

  44    C  6  s      Cor( 1s)     1.99996     -10.57106
  45    C  6  s      Val( 2s)     1.05410      -0.15527
  46    C  6  s      Ryd( 3s)     0.00080       0.59760
  47    C  6  px     Val( 2p)     1.18542      -0.07088
  48    C  6  px     Ryd( 3p)     0.00349       0.88347
  49    C  6  py     Val( 2p)     1.08772      -0.07304
  50    C  6  py     Ryd( 3p)     0.00251       0.61446
  51    C  6  pz     Val( 2p)     1.02371      -0.08943
  52    C  6  pz     Ryd( 3p)     0.00171       0.58659
  53    C  6  dxy    Ryd( 3d)     0.00062       2.30616
  54    C  6  dxz    Ryd( 3d)     0.00042       2.20581
  55    C  6  dyz    Ryd( 3d)     0.00069       2.27055
  56    C  6  dx2y2  Ryd( 3d)     0.00065       2.25247
  57    C  6  dz2    Ryd( 3d)     0.00077       2.07370

  58    C  7  s      Cor( 1s)     1.99996     -10.57646
  59    C  7  s      Val( 2s)     0.96275      -0.11352
  60    C  7  s      Ryd( 3s)     0.00151       0.55636
  61    C  7  px     Val( 2p)     1.14166      -0.07212
  62    C  7  px     Ryd( 3p)     0.00344       0.89717
  63    C  7  py     Val( 2p)     1.06289      -0.06760
  64    C  7  py     Ryd( 3p)     0.00312       0.64049
  65    C  7  pz     Val( 2p)     1.07568      -0.09546
  66    C  7  pz     Ryd( 3p)     0.00457       0.70827
  67    C  7  dxy    Ryd( 3d)     0.00069       2.24904
  68    C  7  dxz    Ryd( 3d)     0.00053       2.23475
  69    C  7  dyz    Ryd( 3d)     0.00066       2.29954
  70    C  7  dx2y2  Ryd( 3d)     0.00068       2.25935
  71    C  7  dz2    Ryd( 3d)     0.00070       2.06666

  72    C  8  s      Cor( 1s)     1.99996     -10.58611
  73    C  8  s      Val( 2s)     0.95868      -0.11074
  74    C  8  s      Ryd( 3s)     0.00180       0.61985
  75    C  8  px     Val( 2p)     1.02955      -0.06762
  76    C  8  px     Ryd( 3p)     0.00329       0.71034
  77    C  8  py     Val( 2p)     1.02389      -0.09207
  78    C  8  py     Ryd( 3p)     0.00355       0.73122
  79    C  8  pz     Val( 2p)     1.16310      -0.08290
  80    C  8  pz     Ryd( 3p)     0.00435       0.88684
  81    C  8  dxy    Ryd( 3d)     0.00067       2.26445
  82    C  8  dxz    Ryd( 3d)     0.00065       2.27388
  83    C  8  dyz    Ryd( 3d)     0.00066       2.20679
  84    C  8  dx2y2  Ryd( 3d)     0.00065       2.05159
  85    C  8  dz2    Ryd( 3d)     0.00065       2.30477

  86    C  9  s      Cor( 1s)     1.99996     -10.56554
  87    C  9  s      Val( 2s)     0.99415      -0.11863
  88    C  9  s      Ryd( 3s)     0.00335       0.65843
  89    C  9  px     Val( 2p)     1.05301      -0.06775
  90    C  9  px     Ryd( 3p)     0.00394       0.71823
  91    C  9  py     Val( 2p)     1.05136      -0.09819
  92    C  9  py     Ryd( 3p)     0.00372       0.74360
  93    C  9  pz     Val( 2p)     1.18943      -0.07413
  94    C  9  pz     Ryd( 3p)     0.00396       0.95109
  95    C  9  dxy    Ryd( 3d)     0.00070       2.24498
  96    C  9  dxz    Ryd( 3d)     0.00076       2.30585
  97    C  9  dyz    Ryd( 3d)     0.00068       2.18875
  98    C  9  dx2y2  Ryd( 3d)     0.00034       2.02037
  99    C  9  dz2    Ryd( 3d)     0.00068       2.34049

 100    H 10  s      Val( 1s)     0.78457       0.09550
 101    H 10  s      Ryd( 2s)     0.00181       0.50868
 102    H 10  px     Ryd( 2p)     0.00088       2.28948
 103    H 10  py     Ryd( 2p)     0.00007       1.79110
 104    H 10  pz     Ryd( 2p)     0.00025       1.87369

 105    H 11  s      Val( 1s)     0.78317       0.09408
 106    H 11  s      Ryd( 2s)     0.00109       0.34369
 107    H 11  px     Ryd( 2p)     0.00058       2.14087
 108    H 11  py     Ryd( 2p)     0.00047       2.04953
 109    H 11  pz     Ryd( 2p)     0.00011       1.78010

 110    H 12  s      Val( 1s)     0.76935       0.10139
 111    H 12  s      Ryd( 2s)     0.00184       0.34471
 112    H 12  px     Ryd( 2p)     0.00085       2.25802
 113    H 12  py     Ryd( 2p)     0.00005       1.85527
 114    H 12  pz     Ryd( 2p)     0.00026       1.91659

 115    H 13  s      Val( 1s)     0.77234       0.08868
 116    H 13  s      Ryd( 2s)     0.00258       0.36560
 117    H 13  px     Ryd( 2p)     0.00004       1.88485
 118    H 13  py     Ryd( 2p)     0.00024       1.87623
 119    H 13  pz     Ryd( 2p)     0.00090       2.27582

 120    H 14  s      Val( 1s)     0.75796       0.11059
 121    H 14  s      Ryd( 2s)     0.00285       0.40624
 122    H 14  px     Ryd( 2p)     0.00005       1.87041
 123    H 14  py     Ryd( 2p)     0.00018       1.86098
 124    H 14  pz     Ryd( 2p)     0.00095       2.34113

 125    O 15  s      Cor( 1s)     1.99997     -19.66299
 126    O 15  s      Val( 2s)     1.57502      -0.76280
 127    O 15  s      Ryd( 3s)     0.00060       1.60861
 128    O 15  px     Val( 2p)     1.75782      -0.37423
 129    O 15  px     Ryd( 3p)     0.00205       1.28467
 130    O 15  py     Val( 2p)     1.73630      -0.38338
 131    O 15  py     Ryd( 3p)     0.00202       1.36419
 132    O 15  pz     Val( 2p)     1.48316      -0.34363
 133    O 15  pz     Ryd( 3p)     0.00113       1.39743
 134    O 15  dxy    Ryd( 3d)     0.00132       2.88410
 135    O 15  dxz    Ryd( 3d)     0.00073       2.91093
 136    O 15  dyz    Ryd( 3d)     0.00139       3.01688
 137    O 15  dx2y2  Ryd( 3d)     0.00096       2.78504
 138    O 15  dz2    Ryd( 3d)     0.00132       3.17938

 139    C 16  s      Cor( 1s)     1.99996     -10.63742
 140    C 16  s      Val( 2s)     0.91250      -0.11887
 141    C 16  s      Ryd( 3s)     0.00817       0.59462
 142    C 16  px     Val( 2p)     0.79744       0.00434
 143    C 16  px     Ryd( 3p)     0.01106       0.60575
 144    C 16  py     Val( 2p)     0.84077      -0.06768
 145    C 16  py     Ryd( 3p)     0.00366       0.61537
 146    C 16  pz     Val( 2p)     0.99496      -0.03524
 147    C 16  pz     Ryd( 3p)     0.00547       0.81166
 148    C 16  dxy    Ryd( 3d)     0.00219       2.26470
 149    C 16  dxz    Ryd( 3d)     0.00180       2.32205
 150    C 16  dyz    Ryd( 3d)     0.00135       2.18823
 151    C 16  dx2y2  Ryd( 3d)     0.00172       2.08396
 152    C 16  dz2    Ryd( 3d)     0.00280       2.31533

 153    H 17  s      Val( 1s)     0.86728       0.04440
 154    H 17  s      Ryd( 2s)     0.00385       0.38917
 155    H 17  px     Ryd( 2p)     0.00004       1.82312
 156    H 17  py     Ryd( 2p)     0.00020       1.81230
 157    H 17  pz     Ryd( 2p)     0.00101       2.27676

 158    O 18  s      Cor( 1s)     1.99997     -19.62307
 159    O 18  s      Val( 2s)     1.69064      -0.73958
 160    O 18  s      Ryd( 3s)     0.00151       1.55617
 161    O 18  px     Val( 2p)     1.56920      -0.32239
 162    O 18  px     Ryd( 3p)     0.00095       1.16110
 163    O 18  py     Val( 2p)     1.53996      -0.29743
 164    O 18  py     Ryd( 3p)     0.00158       1.18487
 165    O 18  pz     Val( 2p)     1.73422      -0.33139
 166    O 18  pz     Ryd( 3p)     0.00223       1.19963
 167    O 18  dxy    Ryd( 3d)     0.00173       2.93237
 168    O 18  dxz    Ryd( 3d)     0.00245       3.16081
 169    O 18  dyz    Ryd( 3d)     0.00109       2.84124
 170    O 18  dx2y2  Ryd( 3d)     0.00190       2.93831
 171    O 18  dz2    Ryd( 3d)     0.00146       2.88100

 172    C 19  s      Cor( 1s)     1.99995     -10.60635
 173    C 19  s      Val( 2s)     1.07928      -0.20524
 174    C 19  s      Ryd( 3s)     0.00178       0.81656
 175    C 19  px     Val( 2p)     1.09011      -0.08304
 176    C 19  px     Ryd( 3p)     0.00137       0.59392
 177    C 19  py     Val( 2p)     0.99440      -0.06851
 178    C 19  py     Ryd( 3p)     0.00320       0.61044
 179    C 19  pz     Val( 2p)     1.07641      -0.08685
 180    C 19  pz     Ryd( 3p)     0.00322       0.71887
 181    C 19  dxy    Ryd( 3d)     0.00124       2.32132
 182    C 19  dxz    Ryd( 3d)     0.00092       2.20483
 183    C 19  dyz    Ryd( 3d)     0.00124       2.24764
 184    C 19  dx2y2  Ryd( 3d)     0.00116       2.26988
 185    C 19  dz2    Ryd( 3d)     0.00113       2.35438

 186    H 20  s      Val( 1s)     0.78960       0.09190
 187    H 20  s      Ryd( 2s)     0.00067       0.34527
 188    H 20  px     Ryd( 2p)     0.00007       1.77449
 189    H 20  py     Ryd( 2p)     0.00017       1.84051
 190    H 20  pz     Ryd( 2p)     0.00088       2.31688

 191    H 21  s      Val( 1s)     0.80712       0.07509
 192    H 21  s      Ryd( 2s)     0.00305       0.52564
 193    H 21  px     Ryd( 2p)     0.00086       2.30870
 194    H 21  py     Ryd( 2p)     0.00009       1.78765
 195    H 21  pz     Ryd( 2p)     0.00022       1.85390

 196    H 22  s      Val( 1s)     0.80644       0.07377
 197    H 22  s      Ryd( 2s)     0.00231       0.38972
 198    H 22  px     Ryd( 2p)     0.00033       1.90295
 199    H 22  py     Ryd( 2p)     0.00074       2.24135
 200    H 22  pz     Ryd( 2p)     0.00006       1.79339


 Summary of Natural Population Analysis:

                                     Natural Population
             Natural    ---------------------------------------------
  Atom No    Charge        Core      Valence    Rydberg      Total
 --------------------------------------------------------------------
    C  1   -0.58436      1.99996     4.57179    0.01262     6.58436
    C  2    0.16551      1.99996     3.80856    0.02597     5.83449
    H  3    0.21012      0.00000     0.78775    0.00213     0.78988
    H  4    0.22758      0.00000     0.77048    0.00194     0.77242
    H  5    0.22033      0.00000     0.77566    0.00400     0.77967
    C  6   -0.36256      1.99996     4.35095    0.01166     6.36256
    C  7   -0.25883      1.99996     4.24298    0.01589     6.25883
    C  8   -0.19146      1.99996     4.17522    0.01628     6.19146
    C  9   -0.30604      1.99996     4.28794    0.01814     6.30604
    H 10    0.21243      0.00000     0.78457    0.00301     0.78757
    H 11    0.21459      0.00000     0.78317    0.00225     0.78541
    H 12    0.22764      0.00000     0.76935    0.00301     0.77236
    H 13    0.22390      0.00000     0.77234    0.00376     0.77610
    H 14    0.23802      0.00000     0.75796    0.00403     0.76198
    O 15   -0.56378      1.99997     6.55229    0.01152     8.56378
    C 16    0.41616      1.99996     3.54567    0.03822     5.58384
    H 17    0.12763      0.00000     0.86728    0.00509     0.87237
    O 18   -0.54886      1.99997     6.53402    0.01488     8.54886
    C 19   -0.25541      1.99995     4.24020    0.01527     6.25541
    H 20    0.20861      0.00000     0.78960    0.00179     0.79139
    H 21    0.18867      0.00000     0.80712    0.00421     0.81133
    H 22    0.19013      0.00000     0.80644    0.00343     0.80987
 ====================================================================
 * Total *  0.00000     19.99960    55.78132    0.21908    76.00000

                                 Natural Population
 ---------------------------------------------------------
   Core                      19.99960 ( 99.9980% of   20)
   Valence                   55.78132 ( 99.6095% of   56)
   Natural Minimal Basis     75.78092 ( 99.7117% of   76)
   Natural Rydberg Basis      0.21908 (  0.2883% of   76)
 ---------------------------------------------------------

    Atom No         Natural Electron Configuration
 ----------------------------------------------------------------------------
      C  1      [core]2s( 1.05)2p( 3.52)3p( 0.01)
      C  2      [core]2s( 0.92)2p( 2.89)3p( 0.02)3d( 0.01)
      H  3            1s( 0.79)
      H  4            1s( 0.77)
      H  5            1s( 0.78)
      C  6      [core]2s( 1.05)2p( 3.30)3p( 0.01)
      C  7      [core]2s( 0.96)2p( 3.28)3p( 0.01)
      C  8      [core]2s( 0.96)2p( 3.22)3p( 0.01)
      C  9      [core]2s( 0.99)2p( 3.29)3p( 0.01)
      H 10            1s( 0.78)
      H 11            1s( 0.78)
      H 12            1s( 0.77)
      H 13            1s( 0.77)
      H 14            1s( 0.76)
      O 15      [core]2s( 1.58)2p( 4.98)3p( 0.01)3d( 0.01)
      C 16      [core]2s( 0.91)2p( 2.63)3s( 0.01)3p( 0.02)3d( 0.01)
      H 17            1s( 0.87)
      O 18      [core]2s( 1.69)2p( 4.84)3d( 0.01)
      C 19      [core]2s( 1.08)2p( 3.16)3p( 0.01)3d( 0.01)
      H 20            1s( 0.79)
      H 21            1s( 0.81)
      H 22            1s( 0.81)


 NATURAL BOND ORBITAL ANALYSIS:

                            Occupancies       Lewis Structure    Low   High
         Max    Occ     -------------------  -----------------   occ   occ
  Cycle  Ctr   Thresh    Lewis   non-Lewis     CR  BD  nC  LP    (L)   (NL)
 ============================================================================
    1     1     1.00    56.14064  19.85936     10   0   0  28     2     24
 ----------------------------------------------------------------------------

 Structure accepted: Search for bonds prevented by NOBOND keyword

 -------------------------------------------------------
   Core                     19.99960 ( 99.998% of  20)
   Valence Lewis            36.14104 ( 64.538% of  56)
  ==================      =============================
   Total Lewis              56.14064 ( 73.869% of  76)
  -----------------------------------------------------
   Valence non-Lewis        19.73109 ( 25.962% of  76)
   Rydberg non-Lewis         0.12828 (  0.169% of  76)
  ==================      =============================
   Total non-Lewis          19.85936 ( 26.131% of  76)
 -------------------------------------------------------


     (Occupancy)   Bond orbital / Coefficients / Hybrids
 ------------------ Lewis ------------------------------------------------------
   1. (1.99996) CR ( 1) C  1            s(100.00%)
                                         1.0000  0.0000  0.0000  0.0000  0.0000
                                         0.0000  0.0000  0.0000  0.0000  0.0000
                                         0.0000  0.0000  0.0000  0.0000
   2. (1.99996) CR ( 1) C  2            s(100.00%)
                                         1.0000  0.0000  0.0000  0.0000  0.0000
                                         0.0000  0.0000  0.0000  0.0000  0.0000
                                         0.0000  0.0000  0.0000  0.0000
   3. (1.99996) CR ( 1) C  6            s(100.00%)
                                         1.0000  0.0000  0.0000  0.0000  0.0000
                                         0.0000  0.0000  0.0000  0.0000  0.0000
                                         0.0000  0.0000  0.0000  0.0000
   4. (1.99996) CR ( 1) C  7            s(100.00%)
                                         1.0000  0.0000  0.0000  0.0000  0.0000
                                         0.0000  0.0000  0.0000  0.0000  0.0000
                                         0.0000  0.0000  0.0000  0.0000
   5. (1.99996) CR ( 1) C  8            s(100.00%)
                                         1.0000  0.0000  0.0000  0.0000  0.0000
                                         0.0000  0.0000  0.0000  0.0000  0.0000
                                         0.0000  0.0000  0.0000  0.0000
   6. (1.99996) CR ( 1) C  9            s(100.00%)
                                         1.0000  0.0000  0.0000  0.0000  0.0000
                                         0.0000  0.0000  0.0000  0.0000  0.0000
                                         0.0000  0.0000  0.0000  0.0000
   7. (1.99997) CR ( 1) O 15            s(100.00%)
                                         1.0000  0.0000  0.0000  0.0000  0.0000
                                         0.0000  0.0000  0.0000  0.0000  0.0000
                                         0.0000  0.0000  0.0000  0.0000
   8. (1.99996) CR ( 1) C 16            s(100.00%)
                                         1.0000  0.0000  0.0000  0.0000  0.0000
                                         0.0000  0.0000  0.0000  0.0000  0.0000
                                         0.0000  0.0000  0.0000  0.0000
   9. (1.99997) CR ( 1) O 18            s(100.00%)
                                         1.0000  0.0000  0.0000  0.0000  0.0000
                                         0.0000  0.0000  0.0000  0.0000  0.0000
                                         0.0000  0.0000  0.0000  0.0000
  10. (1.99995) CR ( 1) C 19            s(100.00%)
                                         1.0000  0.0000  0.0000  0.0000  0.0000
                                         0.0000  0.0000  0.0000  0.0000  0.0000
                                         0.0000  0.0000  0.0000  0.0000
  11. (1.22333) LP ( 1) C  1            s(  9.96%)p 9.04( 90.00%)d 0.00(  0.04%)
                                         0.0000  0.3155 -0.0047  0.1762 -0.0039
                                        -0.0469 -0.0147 -0.9309 -0.0067 -0.0032
                                        -0.0087 -0.0024  0.0036  0.0184
  12. (1.21292) LP ( 2) C  1            s( 21.26%)p 3.70( 78.69%)d 0.00(  0.05%)
                                         0.0000  0.4607 -0.0185 -0.4577 -0.0038
                                        -0.7510 -0.0340  0.1083 -0.0204  0.0083
                                        -0.0124 -0.0175 -0.0033  0.0021
  13. (1.16599) LP ( 3) C  1            s(  0.08%)p99.99( 99.85%)d 0.95(  0.08%)
                                         0.0000  0.0273  0.0069  0.8551 -0.0411
                                        -0.4766  0.0153  0.1951 -0.0113  0.0174
                                         0.0125 -0.0024  0.0160  0.0059
  14. (0.97856) LP ( 4) C  1            s( 68.69%)p 0.45( 31.22%)d 0.00(  0.09%)
                                         0.0000  0.8287  0.0147  0.1594  0.0134
                                         0.4509  0.0232  0.2877  0.0057  0.0161
                                         0.0011  0.0174 -0.0173  0.0031
  15. (1.23436) LP ( 1) C  2            s( 15.23%)p 5.56( 84.74%)d 0.00(  0.03%)
                                         0.0000  0.3896 -0.0227  0.4246 -0.0019
                                         0.7743 -0.0052 -0.2586  0.0262  0.0084
                                        -0.0059 -0.0124 -0.0039 -0.0040
  16. (0.99483) LP ( 2) C  2            s( 53.65%)p 0.86( 46.28%)d 0.00(  0.07%)
                                         0.0000  0.7324  0.0075 -0.0810  0.0043
                                        -0.4811 -0.0134 -0.4730 -0.0306  0.0156
                                         0.0034  0.0108 -0.0167 -0.0087
  17. (1.22523) LP ( 1) C  6            s( 35.72%)p 1.80( 64.23%)d 0.00(  0.06%)
                                         0.0000  0.5974 -0.0156  0.2050  0.0030
                                        -0.5939 -0.0241 -0.4965 -0.0226  0.0109
                                        -0.0063 -0.0031  0.0171 -0.0101
  18. (1.20997) LP ( 2) C  6            s(  0.21%)p99.99( 99.74%)d 0.21(  0.04%)
                                         0.0000  0.0458  0.0054 -0.9262  0.0088
                                        -0.3592  0.0059  0.1020  0.0007  0.0152
                                         0.0124  0.0009 -0.0062 -0.0044
  19. (1.23661) LP ( 1) C  7            s( 12.17%)p 7.22( 87.80%)d 0.00(  0.03%)
                                         0.0000  0.3480 -0.0236 -0.7692  0.0065
                                         0.1855  0.0042  0.5019 -0.0030 -0.0010
                                        -0.0123 -0.0036  0.0131 -0.0031
  20. (1.07684) LP ( 2) C  7            s(  2.25%)p43.41( 97.69%)d 0.03(  0.06%)
                                         0.0000  0.1497  0.0099 -0.3783 -0.0064
                                        -0.8314 -0.0305 -0.3756 -0.0239 -0.0165
                                        -0.0091  0.0112 -0.0075  0.0064
  21. (1.01347) LP ( 3) C  7            s(  0.05%)p99.99( 99.89%)d 1.13(  0.06%)
                                         0.0000  0.0228  0.0040 -0.3673  0.0071
                                         0.5195 -0.0184 -0.7703  0.0164  0.0096
                                        -0.0031  0.0045  0.0037  0.0216
  22. (1.23389) LP ( 1) C  8            s( 12.21%)p 7.19( 87.75%)d 0.00(  0.04%)
                                         0.0000  0.3488 -0.0202 -0.1426 -0.0080
                                         0.3086 -0.0079  0.8728  0.0009 -0.0025
                                         0.0028  0.0130 -0.0052  0.0127
  23. (1.08036) LP ( 2) C  8            s(  0.13%)p99.99( 99.82%)d 0.43(  0.05%)
                                         0.0000  0.0358  0.0012  0.7697  0.0186
                                         0.6268  0.0055 -0.1098 -0.0200 -0.0070
                                        -0.0173 -0.0081  0.0050  0.0105
  24. (1.25066) LP ( 1) C  9            s( 14.47%)p 5.91( 85.50%)d 0.00(  0.03%)
                                         0.0000  0.3796 -0.0233  0.1665  0.0048
                                        -0.2084  0.0111 -0.8853 -0.0023 -0.0023
                                         0.0020  0.0114 -0.0035  0.0119
  25. (1.09292) LP ( 2) C  9            s(  3.10%)p31.23( 96.83%)d 0.02(  0.07%)
                                         0.0000  0.1760 -0.0059  0.7294  0.0221
                                         0.6573  0.0094  0.0584 -0.0153  0.0107
                                         0.0184  0.0129 -0.0034 -0.0092
  26. (1.00327) LP ( 3) C  9            s(  0.04%)p99.99( 99.89%)d 1.78(  0.07%)
                                         0.0000  0.0155 -0.0119  0.6237 -0.0078
                                        -0.7228  0.0240  0.2947 -0.0050  0.0103
                                         0.0098 -0.0152 -0.0085  0.0132
  27. (1.96260) LP ( 1) O 15            s( 34.64%)p 1.89( 65.31%)d 0.00(  0.05%)
                                         0.0000  0.5886 -0.0043  0.2641 -0.0007
                                         0.6768 -0.0052  0.3538 -0.0016 -0.0099
                                        -0.0067 -0.0150  0.0109  0.0053
  28. (1.83415) LP ( 2) O 15            s(  0.00%)p 1.00( 99.94%)d 0.00(  0.06%)
                                         0.0000 -0.0011  0.0018  0.8622 -0.0043
                                        -0.4531  0.0040  0.2251 -0.0007 -0.0138
                                        -0.0136  0.0016 -0.0152 -0.0052
  29. (1.39185) LP ( 3) O 15            s(  1.87%)p52.53( 97.99%)d 0.08(  0.14%)
                                         0.0000  0.1366  0.0014  0.3489  0.0067
                                         0.2160  0.0003 -0.9006 -0.0198 -0.0137
                                         0.0035  0.0233  0.0031  0.0262
  30. (1.36970) LP ( 4) O 15            s( 63.46%)p 0.57( 36.48%)d 0.00(  0.06%)
                                         0.0000  0.7966  0.0043 -0.2536  0.0041
                                        -0.5375  0.0094 -0.1066  0.0067  0.0184
                                        -0.0079  0.0022 -0.0121  0.0066
  31. (1.18232) LP ( 1) C 16            s( 31.39%)p 2.18( 68.58%)d 0.00(  0.03%)
                                         0.0000  0.5595 -0.0288 -0.0852  0.0213
                                         0.3014  0.0061  0.7661 -0.0151 -0.0011
                                        -0.0001  0.0105 -0.0029  0.0123
  32. (1.98211) LP ( 1) O 18            s( 54.99%)p 0.82( 44.97%)d 0.00(  0.04%)
                                         0.0000  0.7414 -0.0150  0.5249  0.0015
                                         0.2004  0.0009 -0.3661 -0.0007 -0.0096
                                         0.0143  0.0041 -0.0090  0.0002
  33. (1.89166) LP ( 2) O 18            s(  0.02%)p99.99( 99.87%)d 5.63(  0.11%)
                                         0.0000  0.0126 -0.0063 -0.3250  0.0045
                                        -0.5712  0.0090 -0.7527  0.0095  0.0182
                                         0.0138 -0.0027  0.0028 -0.0243
  34. (1.33633) LP ( 3) O 18            s( 39.88%)p 1.50( 59.90%)d 0.01(  0.22%)
                                         0.0000  0.6311  0.0236 -0.7206 -0.0149
                                         0.0615 -0.0040  0.2749  0.0109  0.0094
                                        -0.0336 -0.0061  0.0296 -0.0075
  35. (1.33472) LP ( 4) O 18            s(  5.15%)p18.37( 94.64%)d 0.04(  0.20%)
                                         0.0000  0.2269  0.0073  0.3112 -0.0043
                                        -0.7925 -0.0032  0.4707  0.0062  0.0241
                                        -0.0112 -0.0271 -0.0201  0.0132
  36. (1.22473) LP ( 1) C 19            s(  0.66%)p99.99( 99.28%)d 0.09(  0.06%)
                                         0.0000  0.0787 -0.0208 -0.1682 -0.0077
                                        -0.5716  0.0017 -0.7980  0.0296 -0.0047
                                         0.0070 -0.0117  0.0076 -0.0184
  37. (1.21071) LP ( 2) C 19            s(  0.18%)p99.99( 99.76%)d 0.34(  0.06%)
                                         0.0000  0.0423  0.0017  0.8429 -0.0024
                                        -0.5024  0.0057  0.1864  0.0012 -0.0154
                                        -0.0115  0.0004 -0.0140 -0.0068
  38. (1.18697) LP ( 3) C 19            s( 80.06%)p 0.25( 19.92%)d 0.00(  0.02%)
                                         0.0000  0.8947 -0.0050 -0.2439 -0.0005
                                        -0.2227 -0.0044  0.2997  0.0151 -0.0072
                                         0.0075  0.0109  0.0021  0.0020
 ---------------- non-Lewis ----------------------------------------------------
  39. (0.95663) LV ( 1) C  2            s(  0.06%)p99.99( 99.88%)d 1.10(  0.06%)
                                         0.0000  0.0199 -0.0130 -0.8869  0.0309
                                         0.4008 -0.0182 -0.2244  0.0018  0.0157
                                         0.0018  0.0053  0.0186  0.0001
  40. (0.63275) LV ( 2) C  2            s( 31.03%)p 2.22( 68.74%)d 0.01(  0.23%)
                                         0.0000  0.5568  0.0162 -0.1582  0.0116
                                         0.0756  0.0359  0.8078  0.0531  0.0000
                                        -0.0145  0.0118 -0.0013  0.0437
  41. (0.78867) LV ( 1) H  3            s( 99.88%)p 0.00(  0.12%)
                                         0.9994  0.0000  0.0152  0.0269 -0.0141
  42. (0.77139) LV ( 1) H  4            s( 99.88%)p 0.00(  0.12%)
                                         0.9994  0.0000 -0.0076  0.0023  0.0334
  43. (0.77683) LV ( 1) H  5            s( 99.85%)p 0.00(  0.15%)
                                         0.9992  0.0000 -0.0164 -0.0300  0.0184
  44. (0.96768) LV ( 1) C  6            s( 23.35%)p 3.28( 76.57%)d 0.00(  0.08%)
                                         0.0000  0.4831  0.0081 -0.2985 -0.0018
                                         0.7175 -0.0117 -0.4012  0.0264 -0.0081
                                        -0.0070  0.0106 -0.0139 -0.0204
  45. (0.95449) LV ( 2) C  6            s( 40.71%)p 1.45( 59.21%)d 0.00(  0.08%)
                                         0.0000  0.6379  0.0120  0.1005 -0.0177
                                         0.0384  0.0220  0.7614 -0.0014  0.0039
                                        -0.0041  0.0241 -0.0012  0.0145
  46. (0.92207) LV ( 1) C  7            s( 85.51%)p 0.17( 14.43%)d 0.00(  0.06%)
                                         0.0000  0.9246  0.0099  0.3596 -0.0203
                                         0.0524 -0.0092 -0.1085  0.0035  0.0113
                                        -0.0033  0.0204 -0.0023 -0.0075
  47. (0.94423) LV ( 1) C  8            s(  0.01%)p99.99( 99.93%)d 4.36(  0.06%)
                                         0.0000  0.0081  0.0081 -0.6206  0.0090
                                         0.6999 -0.0149 -0.3520  0.0053  0.0093
                                         0.0075 -0.0131 -0.0122  0.0103
  48. (0.92106) LV ( 2) C  8            s( 87.64%)p 0.14( 12.30%)d 0.00(  0.06%)
                                         0.0000  0.9361  0.0099  0.0291 -0.0042
                                        -0.1447  0.0120 -0.3178  0.0082  0.0206
                                        -0.0111  0.0037  0.0071 -0.0002
  49. (0.94642) LV ( 1) C  9            s( 82.42%)p 0.21( 17.52%)d 0.00(  0.06%)
                                         0.0000  0.9077  0.0144 -0.2219 -0.0092
                                        -0.0278  0.0015  0.3537 -0.0061  0.0184
                                        -0.0140  0.0026  0.0084  0.0044
  50. (0.78558) LV ( 1) H 10            s( 99.87%)p 0.00(  0.13%)
                                         0.9994  0.0000 -0.0323  0.0042  0.0150
  51. (0.78413) LV ( 1) H 11            s( 99.88%)p 0.00(  0.12%)
                                         0.9994  0.0000  0.0258  0.0227  0.0067
  52. (0.77037) LV ( 1) H 12            s( 99.87%)p 0.00(  0.13%)
                                         0.9993  0.0000  0.0326 -0.0016 -0.0162
  53. (0.77338) LV ( 1) H 13            s( 99.87%)p 0.00(  0.13%)
                                         0.9993  0.0000  0.0007 -0.0154 -0.0332
  54. (0.75899) LV ( 1) H 14            s( 99.86%)p 0.00(  0.14%)
                                         0.9993  0.0000 -0.0032  0.0125  0.0347
  55. (0.97225) LV ( 1) C 16            s( 29.29%)p 2.41( 70.66%)d 0.00(  0.04%)
                                         0.0000  0.5412 -0.0078 -0.6018 -0.0034
                                        -0.5288  0.0057 -0.2545 -0.0013  0.0124
                                         0.0119  0.0121 -0.0018 -0.0020
  56. (0.74183) LV ( 2) C 16            s(  0.02%)p99.99( 99.75%)d14.46(  0.23%)
                                         0.0000  0.0121 -0.0036  0.5354 -0.0172
                                        -0.7656  0.0258  0.3518 -0.0063 -0.0203
                                        -0.0063  0.0291  0.0250 -0.0200
  57. (0.66188) LV ( 3) C 16            s( 39.21%)p 1.54( 60.58%)d 0.01(  0.21%)
                                         0.0000  0.6236  0.0569  0.5819  0.0640
                                         0.2006  0.0355 -0.4698 -0.0282  0.0174
                                        -0.0348 -0.0129  0.0199 -0.0002
  58. (0.86842) LV ( 1) H 17            s( 99.87%)p 0.00(  0.13%)
                                         0.9993  0.0000  0.0007 -0.0138 -0.0335
  59. (0.62595) LV ( 1) C 19            s( 19.13%)p 4.21( 80.60%)d 0.01(  0.28%)
                                         0.0000  0.4366  0.0265  0.4464  0.0293
                                         0.6059  0.0515 -0.4859  0.0006  0.0299
                                        -0.0257 -0.0335 -0.0088 -0.0008
  60. (0.79059) LV ( 1) H 20            s( 99.87%)p 0.00(  0.13%)
                                         0.9994  0.0000  0.0027 -0.0125 -0.0330
  61. (0.80812) LV ( 1) H 21            s( 99.88%)p 0.00(  0.12%)
                                         0.9994  0.0000  0.0322  0.0031  0.0141
  62. (0.80740) LV ( 1) H 22            s( 99.88%)p 0.00(  0.12%)
                                         0.9994  0.0000 -0.0179  0.0295 -0.0003
  63. (0.00201) RY ( 1) C  1            s(  2.86%)p31.95( 91.47%)d 1.98(  5.66%)
                                         0.0000  0.0080  0.1690 -0.0088 -0.2585
                                        -0.0159 -0.1103  0.0008  0.9140 -0.1010
                                         0.0036  0.1174  0.0545  0.1723
  64. (0.00100) RY ( 2) C  1            s(  0.08%)p99.99( 98.31%)d20.68(  1.61%)
                                         0.0000  0.0050  0.0274 -0.0361 -0.9144
                                         0.0207  0.3090 -0.0059 -0.2231 -0.0615
                                        -0.0864  0.0150 -0.0494 -0.0465
  65. (0.00043) RY ( 3) C  1            s( 13.17%)p 6.57( 86.57%)d 0.02(  0.26%)
                                         0.0000 -0.0020  0.3629 -0.0224  0.2828
                                        -0.0428  0.8780 -0.0193  0.1102 -0.0119
                                        -0.0314 -0.0031 -0.0043  0.0381
  66. (0.00012) RY ( 4) C  1            s( 77.06%)p 0.17( 13.16%)d 0.13(  9.78%)
                                         0.0000 -0.0030  0.8778 -0.0052 -0.0528
                                         0.0067 -0.3234 -0.0010 -0.1556  0.1446
                                        -0.0482 -0.2588  0.0457 -0.0738
  67. (0.00003) RY ( 5) C  1            s(  2.87%)p 2.80(  8.04%)d31.01( 89.08%)
  68. (0.00001) RY ( 6) C  1            s(  0.25%)p 1.68(  0.42%)d99.99( 99.33%)
  69. (0.00001) RY ( 7) C  1            s(  0.32%)p 1.70(  0.54%)d99.99( 99.15%)
  70. (0.00000) RY ( 8) C  1            s(  0.02%)p25.68(  0.59%)d99.99( 99.39%)
  71. (0.00000) RY ( 9) C  1            s(  3.38%)p 0.34(  1.14%)d28.25( 95.48%)
  72. (0.00698) RY ( 1) C  2            s(  0.22%)p99.99( 97.30%)d11.50(  2.48%)
                                         0.0000  0.0193  0.0422  0.0050 -0.1255
                                         0.0302 -0.7067  0.0667 -0.6726 -0.0117
                                         0.0632  0.0945 -0.0353 -0.1025
  73. (0.00421) RY ( 2) C  2            s(  1.31%)p56.37( 74.03%)d18.77( 24.66%)
                                         0.0000 -0.0013  0.1146  0.0096  0.2528
                                         0.0313  0.5716 -0.0059 -0.5904 -0.1467
                                         0.1152  0.4289 -0.0188  0.1658
  74. (0.00251) RY ( 3) C  2            s(  1.96%)p 9.33( 18.28%)d40.71( 79.76%)
                                         0.0000  0.0035  0.1399 -0.0207 -0.4050
                                         0.0112  0.1310 -0.0063 -0.0318 -0.3174
                                        -0.7293  0.1940 -0.1226 -0.3352
  75. (0.00118) RY ( 4) C  2            s( 31.50%)p 1.41( 44.48%)d 0.76( 24.02%)
                                         0.0000  0.0056  0.5612 -0.0175 -0.6151
                                         0.0203  0.2163 -0.0117 -0.1372  0.1639
                                         0.2359 -0.3293  0.1507  0.1629
  76. (0.00082) RY ( 5) C  2            s( 25.08%)p 0.95( 23.95%)d 2.03( 50.97%)
                                         0.0000 -0.0100  0.5007  0.0169  0.4328
                                        -0.0016 -0.2228 -0.0295  0.0369 -0.1976
                                        -0.4048 -0.1852  0.1633  0.4958
  77. (0.00019) RY ( 6) C  2            s( 36.91%)p 0.39( 14.57%)d 1.31( 48.52%)
                                         0.0000 -0.0083  0.6075  0.0025  0.1720
                                         0.0135 -0.1412 -0.0045  0.3098 -0.0550
                                         0.3255  0.3677 -0.3347 -0.3592
  78. (0.00005) RY ( 7) C  2            s(  1.09%)p22.69( 24.73%)d68.05( 74.18%)
  79. (0.00002) RY ( 8) C  2            s(  1.29%)p 1.55(  2.00%)d75.08( 96.72%)
  80. (0.00001) RY ( 9) C  2            s(  0.68%)p 1.50(  1.02%)d99.99( 98.30%)
  81. (0.00097) RY ( 1) H  3            s( 98.81%)p 0.01(  1.19%)
                                         0.0034  0.9940 -0.0765 -0.0523  0.0580
  82. (0.00017) RY ( 2) H  3            s(  0.11%)p99.99( 99.89%)
                                         0.0008  0.0333  0.8832 -0.4115  0.2226
  83. (0.00005) RY ( 3) H  3            s(  0.89%)p99.99( 99.11%)
  84. (0.00002) RY ( 4) H  3            s(  0.31%)p99.99( 99.69%)
  85. (0.00083) RY ( 1) H  4            s( 97.34%)p 0.03(  2.66%)
                                         0.0052  0.9866 -0.0199 -0.0377 -0.1575
  86. (0.00014) RY ( 2) H  4            s(  0.12%)p99.99( 99.88%)
                                         0.0008  0.0343  0.8815 -0.4239  0.2052
  87. (0.00004) RY ( 3) H  4            s(  0.61%)p99.99( 99.39%)
  88. (0.00002) RY ( 4) H  4            s(  2.05%)p47.76( 97.95%)
  89. (0.00268) RY ( 1) H  5            s( 99.52%)p 0.00(  0.48%)
                                         0.0016  0.9976 -0.0239  0.0652 -0.0002
  90. (0.00009) RY ( 2) H  5            s(  0.50%)p99.99( 99.50%)
  91. (0.00005) RY ( 3) H  5            s(  0.07%)p99.99( 99.93%)
  92. (0.00001) RY ( 4) H  5            s(  0.06%)p99.99( 99.94%)
  93. (0.00395) RY ( 1) C  6            s(  1.74%)p53.28( 92.50%)d 3.32(  5.76%)
                                         0.0000  0.0103  0.1314  0.0139  0.8635
                                         0.0076  0.4061 -0.0048 -0.1191  0.1572
                                         0.1467  0.0237 -0.0920 -0.0487
  94. (0.00076) RY ( 2) C  6            s( 12.89%)p 6.71( 86.54%)d 0.04(  0.57%)
                                         0.0000  0.0005  0.3590  0.0091 -0.3930
                                        -0.0218  0.7840 -0.0358  0.3072  0.0152
                                         0.0112 -0.0277 -0.0517 -0.0441
  95. (0.00037) RY ( 3) C  6            s(  3.81%)p23.20( 88.47%)d 2.02(  7.72%)
                                         0.0000  0.0005  0.1953  0.0148  0.1953
                                        -0.0219 -0.3212  0.0071  0.8617  0.1756
                                         0.1542  0.0706  0.0926  0.0950
  96. (0.00014) RY ( 4) C  6            s( 63.91%)p 0.15(  9.45%)d 0.42( 26.65%)
                                         0.0000 -0.0052  0.7994 -0.0055  0.0862
                                        -0.0034 -0.2154 -0.0002 -0.2015 -0.2029
                                        -0.3879 -0.0201  0.2706  0.0350
  97. (0.00001) RY ( 5) C  6            s( 11.77%)p 1.29( 15.18%)d 6.20( 73.05%)
  98. (0.00001) RY ( 6) C  6            s(  0.05%)p34.15(  1.59%)d99.99( 98.37%)
  99. (0.00000) RY ( 7) C  6            s(  0.01%)p 1.00(  2.02%)d48.49( 97.97%)
 100. (0.00000) RY ( 8) C  6            s(  5.75%)p 0.44(  2.55%)d15.95( 91.70%)
 101. (0.00000) RY ( 9) C  6            s(  0.10%)p20.01(  1.96%)d99.99( 97.95%)
 102. (0.00509) RY ( 1) C  7            s(  0.35%)p99.99( 93.81%)d16.59(  5.83%)
                                         0.0000 -0.0103  0.0584 -0.0178 -0.6180
                                        -0.0157  0.0477  0.0085  0.7438  0.0700
                                         0.1636  0.1089 -0.1126  0.0463
 103. (0.00280) RY ( 2) C  7            s( 11.80%)p 6.90( 81.40%)d 0.58(  6.80%)
                                         0.0000 -0.0176  0.3430 -0.0074 -0.5210
                                         0.0287 -0.5536  0.0212 -0.4846  0.1726
                                         0.1338  0.0009 -0.1242 -0.0699
 104. (0.00148) RY ( 3) C  7            s(  0.10%)p99.99( 76.80%)d99.99( 23.11%)
                                         0.0000 -0.0022  0.0308  0.0147  0.3555
                                        -0.0050 -0.7215  0.0256  0.3466 -0.0439
                                         0.1104  0.1135  0.3876  0.2321
 105. (0.00031) RY ( 4) C  7            s( 79.63%)p 0.18( 14.55%)d 0.07(  5.83%)
                                         0.0000  0.0046  0.8923 -0.0163  0.2305
                                        -0.0056  0.2895  0.0095  0.0901  0.1689
                                         0.0750  0.0020  0.1506  0.0377
 106. (0.00017) RY ( 5) C  7            s(  6.28%)p 0.47(  2.96%)d14.46( 90.77%)
                                         0.0000 -0.0010  0.2505  0.0039  0.0699
                                         0.0211 -0.1424  0.0183  0.0599 -0.5917
                                        -0.3821  0.1854 -0.5631  0.2452
 107. (0.00002) RY ( 6) C  7            s(  0.72%)p19.61( 14.18%)d99.99( 85.09%)
 108. (0.00001) RY ( 7) C  7            s(  0.44%)p27.72( 12.12%)d99.99( 87.44%)
 109. (0.00000) RY ( 8) C  7            s(  0.17%)p25.11(  4.16%)d99.99( 95.67%)
 110. (0.00000) RY ( 9) C  7            s(  0.55%)p 0.37(  0.21%)d99.99( 99.24%)
 111. (0.00656) RY ( 1) C  8            s(  5.38%)p16.61( 89.42%)d 0.96(  5.19%)
                                         0.0000 -0.0107  0.2318  0.0029  0.1663
                                         0.0142  0.6069  0.0158  0.7055  0.1044
                                         0.0100 -0.0815  0.0752 -0.1693
 112. (0.00327) RY ( 2) C  8            s( 12.55%)p 6.63( 83.21%)d 0.34(  4.24%)
                                         0.0000  0.0074  0.3542 -0.0043  0.8748
                                        -0.0170 -0.1932  0.0170 -0.1700  0.0901
                                         0.0716  0.0099 -0.1548 -0.0711
 113. (0.00128) RY ( 3) C  8            s(  1.38%)p53.38( 73.75%)d18.00( 24.87%)
                                         0.0000 -0.0019  0.1175 -0.0213  0.0234
                                         0.0075  0.6249  0.0014 -0.5881 -0.0472
                                         0.2186  0.2615  0.3609 -0.0077
 114. (0.00050) RY ( 4) C  8            s( 68.27%)p 0.29( 19.83%)d 0.17( 11.90%)
                                         0.0000 -0.0019  0.8263  0.0062 -0.3203
                                         0.0057 -0.2957  0.0105  0.0899 -0.1370
                                         0.0444  0.1502  0.2588  0.0934
 115. (0.00024) RY ( 5) C  8            s( 11.10%)p 1.97( 21.84%)d 6.04( 67.06%)
                                         0.0000 -0.0034  0.3332 -0.0083 -0.2189
                                        -0.0028  0.2368  0.0181 -0.3376  0.2029
                                        -0.4473 -0.4581 -0.4296 -0.1869
 116. (0.00008) RY ( 6) C  8            s(  0.93%)p 5.32(  4.92%)d99.99( 94.15%)
 117. (0.00002) RY ( 7) C  8            s(  0.22%)p31.55(  6.97%)d99.99( 92.81%)
 118. (0.00001) RY ( 8) C  8            s(  0.07%)p 1.97(  0.13%)d99.99( 99.81%)
 119. (0.00000) RY ( 9) C  8            s(  0.12%)p 1.08(  0.13%)d99.99( 99.76%)
 120. (0.00501) RY ( 1) C  9            s( 13.39%)p 6.36( 85.16%)d 0.11(  1.45%)
                                         0.0000  0.0022  0.3660  0.0299 -0.6500
                                        -0.0013 -0.6532 -0.0154  0.0367  0.0655
                                         0.0616  0.0117 -0.0026 -0.0789
 121. (0.00422) RY ( 2) C  9            s(  1.55%)p60.56( 93.96%)d 2.89(  4.48%)
                                         0.0000 -0.0061  0.1244 -0.0084  0.2833
                                        -0.0170 -0.2335 -0.0062 -0.8969  0.0973
                                         0.0104 -0.0746  0.0478 -0.1656
 122. (0.00213) RY ( 3) C  9            s( 63.73%)p 0.53( 33.86%)d 0.04(  2.41%)
                                         0.0000  0.0019  0.7983  0.0172  0.5055
                                        -0.0155 -0.0589 -0.0125  0.2808 -0.0669
                                        -0.1218 -0.0216  0.0653  0.0094
 123. (0.00107) RY ( 4) C  9            s( 18.98%)p 4.04( 76.66%)d 0.23(  4.37%)
                                         0.0000 -0.0116  0.4355 -0.0045 -0.4672
                                         0.0159  0.6959 -0.0158 -0.2521  0.1154
                                        -0.0963 -0.1129 -0.0914 -0.0023
[...]
          -------------------------------
               Total unit  9    6.30604  (100.0000%)
              Charge unit  9   -0.30604

 Molecular unit 10  (H)
 ------ Lewis --------------------------------------
 ------ non-Lewis ----------------------------------
   50. LV ( 1) H 10             0.78558     0.10467
  129. RY ( 1) H 10             0.00182     0.54010
  130. RY ( 2) H 10             0.00011     1.67423
  131. RY ( 3) H 10             0.00004     2.31146
  132. RY ( 4) H 10             0.00002     1.92798
          -------------------------------
                 Total Lewis    0.00000  (  0.0000%)
           Valence non-Lewis    0.78558  ( 99.7466%)
           Rydberg non-Lewis    0.00200  (  0.2534%)
          -------------------------------
               Total unit 10    0.78757  (100.0000%)
              Charge unit 10    0.21243

 Molecular unit 11  (H)
 ------ Lewis --------------------------------------
 ------ non-Lewis ----------------------------------
   51. LV ( 1) H 11             0.78413     0.10414
  133. RY ( 1) H 11             0.00111     0.40102
  134. RY ( 2) H 11             0.00011     1.68025
  135. RY ( 3) H 11             0.00004     2.19373
  136. RY ( 4) H 11             0.00002     2.02911
          -------------------------------
                 Total Lewis    0.00000  (  0.0000%)
           Valence non-Lewis    0.78413  ( 99.8365%)
           Rydberg non-Lewis    0.00128  (  0.1635%)
          -------------------------------
               Total unit 11    0.78541  (100.0000%)
              Charge unit 11    0.21459

 Molecular unit 12  (H)
 ------ Lewis --------------------------------------
 ------ non-Lewis ----------------------------------
   52. LV ( 1) H 12             0.77037     0.11170
  137. RY ( 1) H 12             0.00186     0.37537
  138. RY ( 2) H 12             0.00008     1.68474
  139. RY ( 3) H 12             0.00003     2.28845
  140. RY ( 4) H 12             0.00002     2.01572
          -------------------------------
                 Total Lewis    0.00000  (  0.0000%)
           Valence non-Lewis    0.77037  ( 99.7427%)
           Rydberg non-Lewis    0.00199  (  0.2573%)
          -------------------------------
               Total unit 12    0.77236  (100.0000%)
              Charge unit 12    0.22764

 Molecular unit 13  (H)
 ------ Lewis --------------------------------------
 ------ non-Lewis ----------------------------------
   53. LV ( 1) H 13             0.77338     0.09863
  141. RY ( 1) H 13             0.00259     0.38366
  142. RY ( 2) H 13             0.00008     1.69958
  143. RY ( 3) H 13             0.00004     2.34006
  144. RY ( 4) H 13             0.00001     1.96925
          -------------------------------
                 Total Lewis    0.00000  (  0.0000%)
           Valence non-Lewis    0.77338  ( 99.6495%)
           Rydberg non-Lewis    0.00272  (  0.3505%)
          -------------------------------
               Total unit 13    0.77610  (100.0000%)
              Charge unit 13    0.22390

 Molecular unit 14  (H)
 ------ Lewis --------------------------------------
 ------ non-Lewis ----------------------------------
   54. LV ( 1) H 14             0.75899     0.12072
  145. RY ( 1) H 14             0.00286     0.42026
  146. RY ( 2) H 14             0.00007     1.75146
  147. RY ( 3) H 14             0.00004     2.30965
  148. RY ( 4) H 14             0.00002     1.98725
          -------------------------------
                 Total Lewis    0.00000  (  0.0000%)
           Valence non-Lewis    0.75899  ( 99.6075%)
           Rydberg non-Lewis    0.00299  (  0.3925%)
          -------------------------------
               Total unit 14    0.76198  (100.0000%)
              Charge unit 14    0.23802

 Molecular unit 15  (O)
 ------ Lewis --------------------------------------
    7. CR ( 1) O 15             1.99997   -19.66299
   27. LP ( 1) O 15             1.96260    -0.54864  59(r),40(r),72(r),56(r)
                                                     180(r),73(r),181(r),43(r)
                                                     60(r),41(r),76(r),61(r)
                                                     62(r),184(r),183(r),39(r)
                                                     77(r),189(r),75(r),57(r)
                                                     92(r)
   28. LP ( 2) O 15             1.83415    -0.38354  39(r),74(r),182(r),56(r)
                                                     62(r),61(r),197(r),188(r)
                                                     80(r),200(r)
   29. LP ( 3) O 15             1.39185    -0.32747  40(r),59(r),154(g),78(r)
                                                     72(r),181(r),61(r),43(r)
                                                     76(r),62(r),184(r),185(r)
                                                     187(r),60(r),41(r),73(r)
                                                     183(r),63(r),42(r),188(r)
                                                     75(r),180(r),186(r),77(r)
                                                     80(r),92(r),67(r),195(r)
                                                     199(r),65(r),192(r),172(r)
                                                     68(r)
   30. LP ( 4) O 15             1.36970    -0.60140  59(r),40(r),153(g),180(r)
                                                     76(r),187(r),185(r),181(r)
                                                     43(r),60(r),78(r),149(g)
                                                     61(r),62(r),41(r),63(r)
                                                     77(r),75(r),188(r),184(r)
                                                     73(r),122(r),66(r),67(r)
                                                     192(r),39(r),81(r),80(r)
 ------ non-Lewis ----------------------------------
  149. RY ( 1) O 15             0.00246     1.35428
  150. RY ( 2) O 15             0.00232     1.26234
  151. RY ( 3) O 15             0.00028     2.37025
  152. RY ( 4) O 15             0.00022     2.73203
  153. RY ( 5) O 15             0.00012     1.80986
  154. RY ( 6) O 15             0.00009     2.50721
  155. RY ( 7) O 15             0.00002     2.80368
  156. RY ( 8) O 15             0.00001     2.86946
  157. RY ( 9) O 15             0.00000     2.71914
          -------------------------------
                 Total Lewis    8.55826  ( 99.9356%)
           Valence non-Lewis    0.00000  (  0.0000%)
           Rydberg non-Lewis    0.00552  (  0.0644%)
          -------------------------------
               Total unit 15    8.56378  (100.0000%)
              Charge unit 15   -0.56378

 Molecular unit 16  (C)
 ------ Lewis --------------------------------------
    8. CR ( 1) C 16             1.99996   -10.63742  167(r)
   31. LP ( 1) C 16             1.18232    -0.14541  58(r),167(r),55(g),49(r)
                                                     57(g),168(r),48(r),164(g)
                                                     54(r),158(g),159(g),171(r)
                                                     162(g),141(r),122(r),169(r)
                                                     126(r),179(r),39(r),121(r)
                                                     114(r),123(r),112(r),125(r)
                                                     111(r),177(r),174(r),176(r)
                                                     120(r),173(r),147(r),117(r)
                                                     116(r),113(r)
 ------ non-Lewis ----------------------------------
   55. LV ( 1) C 16             0.97225    -0.04770
   56. LV ( 2) C 16             0.74183    -0.10674
   57. LV ( 3) C 16             0.66188     0.12842
  158. RY ( 1) C 16             0.01344     0.63835
  159. RY ( 2) C 16             0.00654     1.68169
  160. RY ( 3) C 16             0.00240     1.25902
  161. RY ( 4) C 16             0.00181     1.29990
  162. RY ( 5) C 16             0.00104     1.42040
  163. RY ( 6) C 16             0.00028     1.15333
  164. RY ( 7) C 16             0.00006     2.09838
  165. RY ( 8) C 16             0.00004     2.28329
  166. RY ( 9) C 16             0.00000     1.92130
          -------------------------------
                 Total Lewis    3.18227  ( 56.9908%)
           Valence non-Lewis    2.37596  ( 42.5507%)
           Rydberg non-Lewis    0.02560  (  0.4585%)
          -------------------------------
               Total unit 16    5.58384  (100.0000%)
              Charge unit 16    0.41616

 Molecular unit 17  (H)
 ------ Lewis --------------------------------------
 ------ non-Lewis ----------------------------------
   58. LV ( 1) H 17             0.86842     0.05306
  167. RY ( 1) H 17             0.00386     0.39351
  168. RY ( 2) H 17             0.00004     2.34697
  169. RY ( 3) H 17             0.00003     1.86724
  170. RY ( 4) H 17             0.00002     1.68495
          -------------------------------
                 Total Lewis    0.00000  (  0.0000%)
           Valence non-Lewis    0.86842  ( 99.5469%)
           Rydberg non-Lewis    0.00395  (  0.4531%)
          -------------------------------
               Total unit 17    0.87237  (100.0000%)
              Charge unit 17    0.12763

 Molecular unit 18  (O)
 ------ Lewis --------------------------------------
    9. CR ( 1) O 18             1.99997   -19.62307  57(r)
   32. LP ( 1) O 18             1.98211    -0.63124  57(r),158(r),55(r),43(r)
                                                     58(r),54(r),49(r),89(r)
                                                     165(r)
   33. LP ( 2) O 18             1.89166    -0.33959  55(r),58(r),49(r),159(r)
                                                     160(r),163(r),57(r),43(r)
                                                     162(r),168(r),167(r),125(r)
                                                     39(r),111(r)
   34. LP ( 3) O 18             1.33633    -0.42589  57(r),56(r),173(g),58(r)
                                                     165(r),49(r),158(r),55(r)
                                                     121(r),163(r),160(r),164(r)
                                                     175(g),162(r),54(r),120(r)
                                                     89(r),166(r),72(r),159(r)
                                                     46(r),169(r),126(r),111(r)
                                                     43(r),48(r),114(r),161(r)
                                                     112(r),53(r),167(r),39(r)
                                                     141(r),47(r),148(r)
   35. LP ( 4) O 18             1.33472    -0.28796  56(r),57(r),162(r),172(g)
                                                     58(r),165(r),55(r),161(r)
                                                     173(g),49(r),158(r),47(r)
                                                     164(r),179(g),43(r),163(r)
                                                     121(r),160(r),54(r),166(r)
                                                     159(r),39(r),120(r),46(r)
                                                     48(r)
 ------ non-Lewis ----------------------------------
  171. RY ( 1) O 18             0.00343     1.24894
  172. RY ( 2) O 18             0.00043     1.17387
  173. RY ( 3) O 18             0.00017     1.51488
  174. RY ( 4) O 18             0.00003     1.24620
  175. RY ( 5) O 18             0.00000     3.32118
  176. RY ( 6) O 18             0.00000     2.85738
  177. RY ( 7) O 18             0.00000     2.82018
  178. RY ( 8) O 18             0.00000     2.72520
  179. RY ( 9) O 18             0.00000     2.94156
          -------------------------------
                 Total Lewis    8.54479  ( 99.9523%)
           Valence non-Lewis    0.00000  (  0.0000%)
           Rydberg non-Lewis    0.00407  (  0.0477%)
          -------------------------------
               Total unit 18    8.54886  (100.0000%)
              Charge unit 18   -0.54886

 Molecular unit 19  (C)
 ------ Lewis --------------------------------------
   10. CR ( 1) C 19             1.99995   -10.60635  60(r),61(r),62(r),189(r)
   36. LP ( 1) C 19             1.22473    -0.10518  60(r),61(r),62(r),189(r)
                                                     193(r),197(r),186(g),183(g)
                                                     184(g),59(g),41(r),192(r)
                                                     181(g),198(r),191(r),194(r)
                                                     196(r),43(r),200(r),42(r)
                                                     40(r),188(g),47(r),149(r)
                                                     185(g),180(g),150(r),151(r)
                                                     112(r),155(r),154(r),81(r)
                                                     114(r),65(r),157(r),78(r)
                                                     152(r),48(r),156(r),63(r)
                                                     39(r),129(r),113(r),73(r)
   37. LP ( 2) C 19             1.21071    -0.09783  62(r),61(r),197(r),193(r)
                                                     183(g),47(r),188(g),200(r)
                                                     182(g),39(r),184(g),190(r)
                                                     196(r),185(g),199(r),60(r)
                                                     186(g),195(r),152(r),150(r)
                                                     194(r),151(r),198(r),149(r)
                                                     75(r),157(r),129(r),155(r)
                                                     45(r)
   38. LP ( 3) C 19             1.18697    -0.20880  60(r),61(r),62(r),189(r)
                                                     193(r),197(r),59(g),191(r)
                                                     195(r),199(r),40(r),200(r)
                                                     196(r),181(g),187(g),192(r)
                                                     180(g),184(g),81(r),153(r)
                                                     72(r),44(r),151(r),112(r)
                                                     129(r),47(r),63(r),114(r)
                                                     95(r),152(r),155(r),41(r)
                                                     194(r),113(r),105(r),122(r)
                                                     45(r),78(r)
 ------ non-Lewis ----------------------------------
   59. LV ( 1) C 19             0.62595     0.00213
  180. RY ( 1) C 19             0.00300     1.01699
  181. RY ( 2) C 19             0.00175     0.70414
  182. RY ( 3) C 19             0.00135     2.03290
  183. RY ( 4) C 19             0.00053     1.17509
  184. RY ( 5) C 19             0.00038     1.59823
  185. RY ( 6) C 19             0.00006     1.06649
  186. RY ( 7) C 19             0.00002     2.29176
  187. RY ( 8) C 19             0.00001     1.99513
  188. RY ( 9) C 19             0.00000     2.22315
          -------------------------------
                 Total Lewis    5.62235  ( 89.8798%)
           Valence non-Lewis    0.62595  ( 10.0065%)
           Rydberg non-Lewis    0.00711  (  0.1137%)
          -------------------------------
               Total unit 19    6.25541  (100.0000%)
              Charge unit 19   -0.25541

 Molecular unit 20  (H)
 ------ Lewis --------------------------------------
 ------ non-Lewis ----------------------------------
   60. LV ( 1) H 20             0.79059     0.10145
  189. RY ( 1) H 20             0.00067     0.36088
  190. RY ( 2) H 20             0.00008     1.79718
  191. RY ( 3) H 20             0.00005     2.14676
  192. RY ( 4) H 20             0.00000     1.96279
          -------------------------------
                 Total Lewis    0.00000  (  0.0000%)
           Valence non-Lewis    0.79059  ( 99.8983%)
           Rydberg non-Lewis    0.00080  (  0.1017%)
          -------------------------------
               Total unit 20    0.79139  (100.0000%)
              Charge unit 20    0.20861

 Molecular unit 21  (H)
 ------ Lewis --------------------------------------
 ------ non-Lewis ----------------------------------
   61. LV ( 1) H 21             0.80812     0.08316
  193. RY ( 1) H 21             0.00306     0.52863
  194. RY ( 2) H 21             0.00008     1.79941
  195. RY ( 3) H 21             0.00006     1.94685
  196. RY ( 4) H 21             0.00001     2.19294
          -------------------------------
                 Total Lewis    0.00000  (  0.0000%)
           Valence non-Lewis    0.80812  ( 99.6049%)
           Rydberg non-Lewis    0.00321  (  0.3951%)
          -------------------------------
               Total unit 21    0.81133  (100.0000%)
              Charge unit 21    0.18867

 Molecular unit 22  (H)
 ------ Lewis --------------------------------------
 ------ non-Lewis ----------------------------------
   62. LV ( 1) H 22             0.80740     0.08250
  197. RY ( 1) H 22             0.00232     0.40158
  198. RY ( 2) H 22             0.00008     1.80727
  199. RY ( 3) H 22             0.00006     1.90255
  200. RY ( 4) H 22             0.00001     2.20728
          -------------------------------
                 Total Lewis    0.00000  (  0.0000%)
           Valence non-Lewis    0.80740  ( 99.6953%)
           Rydberg non-Lewis    0.00247  (  0.3047%)
          -------------------------------
               Total unit 22    0.80987  (100.0000%)
              Charge unit 22    0.19013

 $CHOOSE
   LONE 1 4 2 2 6 2 7 3 8 2 9 3 15 4 16 1 18 4 19 3 END
 $END

 NBO analysis completed in 0.68 CPU seconds (1 wall second)
 Maximum scratch memory used by NBO was 623068 words (4.75 MB)
 Maximum scratch memory used by G16NBO was 69762 words (0.53 MB)

 Opening RunExU unformatted file "/tmp/DA_R-20089.tmp/Gau-219838.EUF"
 Read unf file /tmp/DA_R-20089.tmp/Gau-219838.EUF:
 Label Gaussian matrix elements                                         IVers= 1 NLab= 2 Version=ES64L-G16RevB.01
 Title Reactant complex                                                
 NAtoms=    22 NBasis=   200 NBsUse=   200 ICharg=     0 Multip=     1 NE=    76 Len12L=8 Len4L=8 IOpCl= 0 ICGU= -1
 GAUSSIAN SCALARS                    NI= 1 NR= 1 NTot=       1 LenBuf=    2 NRI=1 N=    1000
 NPA CHARGES                         NI= 0 NR= 1 NTot=      22 LenBuf= 2048 NRI=1 N=      22
 Recovered energy= -461.870061841     dipole=     -1.174441225144     -0.905927325065      0.594947814980
 1\1\GINC-CU06\SP\RM062X\def2SVP\C8H12O2\WANG\12-Sep-2005\0\\# M062X/De
 f2SVP EM=GD3 POP=NBO6Read\\Reactant complex\\0,1\C,0,-0.079272,2.36129
 1,-1.154295\C,0,0.066395,2.002084,0.126446\H,0,0.663231,2.149063,-1.92
 3336\H,0,-0.973979,2.910255,-1.443332\H,0,-0.690757,2.216824,0.88517\C
 ,0,-0.291375,-1.406689,-2.569216\C,0,0.018835,-2.256973,-1.583537\C,0,
 -0.026558,-1.907981,-0.158817\C,0,-0.837041,-0.986493,0.385775\H,0,-0.
 575639,-0.372079,-2.353173\H,0,-0.250868,-1.715586,-3.615019\H,0,0.354
 533,-3.268238,-1.831356\H,0,0.663094,-2.444019,0.504921\H,0,-1.581754,
 -0.442709,-0.202003\O,0,1.094918,1.326766,0.670376\C,0,-0.738329,-0.64
 2377,1.815647\H,0,0.015116,-1.23625,2.39058\O,0,-1.400086,0.209978,2.3
 49717\C,0,2.114353,0.909843,-0.198821\H,0,2.849257,0.36516,0.404622\H,
 0,1.714525,0.243911,-0.983534\H,0,2.603955,1.773611,-0.679129\\Version
 =ES64L-G16RevB.01\State=1-A\HF=-461.8700618\RMSD=5.718e-09\Dipole=0.81
 13038,-0.7969018,-1.1228148\Quadrupole=0.1445888,1.8754396,-2.0200284,
 -1.4035934,2.5128169,-1.8332808\PG=C01 [X(C8H12O2)]\\@


 Discoveries are often made by not following instructions,
 by going off the main road, by trying the untried.
 -- Frank Tyger
 Job cpu time:       0 days  0 hours  4 minutes 31.6 seconds.
 Elapsed time:       0 days  0 hours  0 minutes  9.9 seconds.
 File lengths (MBytes):  RWF=     24 Int=      0 D2E=      0 Chk=      4 Scr=      1
 Normal termination of Gaussian 16 at Mon Sep 12 23:29:23 2005.
