 Entering Gaussian System, Link 0=g16
 Initial command:
 /opt/software/g16/l1.exe "/tmp/irc_step_000-13723.tmp/Gau-209297.inp" -scrdir="/tmp/irc_step_000-13723.tmp/"
 Entering Link 1 = /opt/software/g16/l1.exe PID=    209302.
  
 Copyright (c) 1988-2017, Gaussian, Inc.  All Rights Reserved.
  
 This is part of the Gaussian(R) 16 program.  It is based on
 the Gaussian(R) 09 system (copyright 2009, Gaussian, Inc.),
 the Gaussian(R) 03 system (copyright 2003, Gaussian, Inc.),
 the Gaussian(R) 98 system (copyright 1998, Gaussian, Inc.),
 the Gaussian(R) 94 system (copyright 1995, Gaussian, Inc.),
 the Gaussian 92(TM) system (copyright 1992, Gaussian, Inc.),
 the Gaussian 90(TM) system (copyright 1990, Gaussian, Inc.),
 the Gaussian 88(TM) system (copyright 1988, Gaussian, Inc.),
 the Gaussian 86(TM) system (copyright 1986, Carnegie Mellon
 University), and the Gaussian 82(TM) system (copyright 1983,
 Carnegie Mellon University). Gaussian is a federally registered
 trademark of Gaussian, Inc.
  
 This software contains proprietary and confidential information,
 including trade secrets, belonging to Gaussian, Inc.
  
 This software is provided under written license and may be
 used, copied, transmitted, or stored only in accord with that
 written license.
  
 The following legend is applicable only to US Government
 contracts under FAR:
  
                    RESTRICTED RIGHTS LEGEND
  
 Use, reproduction and disclosure by the US Government is
 subject to restrictions as set forth in subparagraphs (a)
 and (c) of the Commercial Computer Software - Restricted
 Rights clause in FAR 52.227-19.
  
 Gaussian, Inc.
 340 Quinnipiac St., Bldg. 40, Wallingford CT 06492
  
  
 ---------------------------------------------------------------
 Warning -- This program may not be used in any manner that
 competes with the business of Gaussian, Inc. or will provide
 assistance to any competitor of Gaussian, Inc.  The licensee
 of this program is prohibited from giving any competitor of
 Gaussian, Inc. access to this program.  By using this program,
 the user acknowledges that Gaussian, Inc. is engaged in the
 business of creating and licensing software in the field of
 computational chemistry and represents and warrants to the
 licensee that it is not a competitor of Gaussian, Inc. and that
 it will not use this program in any manner prohibited above.
 ---------------------------------------------------------------
  

 Cite this work as:
 Gaussian 16, Revision B.01,
 M. J. Frisch, G. W. Trucks, H. B. Schlegel, G. E. Scuseria, 
 M. A. Robb, J. R. Cheeseman, G. Scalmani, V. Barone, 
 G. A. Petersson, H. Nakatsuji, X. Li, M. Caricato, A. V. Marenich, 
 J. Bloino, B. G. Janesko, R. Gomperts, B. Mennucci, H. P. Hratchian, 
 J. V. Ortiz, A. F. Izmaylov, J. L. Sonnenberg, D. Williams-Young, 
 F. Ding, F. Lipparini, F. Egidi, J. Goings, B. Peng, A. Petrone, 
 T. Henderson, D. Ranasinghe, V. G. Zakrzewski, J. Gao, N. Rega, 
 G. Zheng, W. Liang, M. Hada, M. Ehara, K. Toyota, R. Fukuda, 
 J. Hasegawa, M. Ishida, T. Nakajima, Y. Honda, O. Kitao, H. Nakai, 
 T. Vreven, K. Throssell, J. A. Montgomery, Jr., J. E. Peralta, 
 F. Ogliaro, M. J. Bearpark, J. J. Heyd, E. N. Brothers, K. N. Kudin, 
 V. N. Staroverov, T. A. Keith, R. Kobayashi, J. Normand, 
 K. Raghavachari, A. P. Rendell, J. C. Burant, S. S. Iyengar, 
 J. Tomasi, M. Cossi, J. M. Millam, M. Klene, C. Adamo, R. Cammi, 
 J. W. Ochterski, R. L. Martin, K. Morokuma, O. Farkas, 
 J. B. Foresman, and D. J. Fox, Gaussian, Inc., Wallingford CT, 2016.
 
 ******************************************
 Gaussian 16:  ES64L-G16RevB.01 20-Dec-2017
                25-May-2020 
 ******************************************
 %nproc=16
 Will use up to   16 processors via shared memory.
 %chk=irc_step_000
 -----------------------------------------------------------------
 #P M062X/Def2SVP EM=GD3 POP(NBO6Read,Hirshfeld) NOSYMM SCFCYC=200
 -----------------------------------------------------------------
 1/38=1,163=2,172=1/1;
 2/12=2,15=1,17=6,18=5,40=1/2;
 3/5=43,7=101,11=2,25=1,30=1,74=-55,124=31/1,2,3;
 4//1;
 5/5=2,7=200,38=5/2;
 6/7=2,8=2,9=2,10=2,28=1,40=2,79=1,113=1,114=1,124=2103/1,12;
 99/5=1,9=1/99;
 Leave Link    1 at Mon May 25 01:54:13 2020, MaxMem=           0 cpu:               0.7 elap:               0.1
 (Enter /opt/software/g16/l101.exe)
 ---------------
 IRC step 0 (TS)
 ---------------
 Symbolic Z-matrix:
 Charge =  0 Multiplicity = 1
 6                     0.053     1.39515  -0.46477 
 6                     0.27004   1.34073   0.91097 
 1                     0.89693   1.6158   -1.11791 
 1                    -0.89322   1.84188  -0.77123 
 1                    -0.46988   1.67159   1.6405 
 6                    -0.22423  -0.49677  -1.25646 
 6                     0.46288  -1.42149  -0.46494 
 6                     0.15765  -1.52324   0.89624 
 6                    -0.80986  -0.73393   1.4939 
 1                    -1.29578  -0.37321  -1.09485 
 1                     0.08236  -0.36213  -2.29675 
 1                     1.36697  -1.9004   -0.84694 
 1                     0.81964  -2.10468   1.54669 
 1                    -1.63837  -0.29571   0.93622 
 8                     1.47339   1.13858   1.45956 
 6                    -0.90107  -0.61854   2.94689 
 1                    -0.1696   -1.24347   3.51922 
 8                    -1.66169   0.12555   3.52256 
 6                     2.61704   1.11682   0.63372 
 1                     3.46368   0.87491   1.28506 
 1                     2.53886   0.35645  -0.15489 
 1                     2.78494   2.10605   0.17551 
 
 ITRead=  0  0  0  0  0  0  0  0  0  0  0  0  0  0  0  0  0  0  0  0
 ITRead=  0  0
 MicOpt= -1 -1 -1 -1 -1 -1 -1 -1 -1 -1 -1 -1 -1 -1 -1 -1 -1 -1 -1 -1
 MicOpt= -1 -1
 NAtoms=     22 NQM=       22 NQMF=       0 NMMI=      0 NMMIF=      0
                NMic=       0 NMicF=      0.
                    Isotopes and Nuclear Properties:
 (Nuclear quadrupole moments (NQMom) in fm**2, nuclear magnetic moments (NMagM)
  in nuclear magnetons)

  Atom         1           2           3           4           5           6           7           8           9          10
 IAtWgt=          12          12           1           1           1          12          12          12          12           1
 AtmWgt=  12.0000000  12.0000000   1.0078250   1.0078250   1.0078250  12.0000000  12.0000000  12.0000000  12.0000000   1.0078250
 NucSpn=           0           0           1           1           1           0           0           0           0           1
 AtZEff=  -0.0000000  -0.0000000  -0.0000000  -0.0000000  -0.0000000  -0.0000000  -0.0000000  -0.0000000  -0.0000000  -0.0000000
 NQMom=    0.0000000   0.0000000   0.0000000   0.0000000   0.0000000   0.0000000   0.0000000   0.0000000   0.0000000   0.0000000
 NMagM=    0.0000000   0.0000000   2.7928460   2.7928460   2.7928460   0.0000000   0.0000000   0.0000000   0.0000000   2.7928460
 AtZNuc=   6.0000000   6.0000000   1.0000000   1.0000000   1.0000000   6.0000000   6.0000000   6.0000000   6.0000000   1.0000000

  Atom        11          12          13          14          15          16          17          18          19          20
 IAtWgt=           1           1           1           1          16          12           1          16          12           1
 AtmWgt=   1.0078250   1.0078250   1.0078250   1.0078250  15.9949146  12.0000000   1.0078250  15.9949146  12.0000000   1.0078250
 NucSpn=           1           1           1           1           0           0           1           0           0           1
 AtZEff=  -0.0000000  -0.0000000  -0.0000000  -0.0000000  -0.0000000  -0.0000000  -0.0000000  -0.0000000  -0.0000000  -0.0000000
 NQMom=    0.0000000   0.0000000   0.0000000   0.0000000   0.0000000   0.0000000   0.0000000   0.0000000   0.0000000   0.0000000
 NMagM=    2.7928460   2.7928460   2.7928460   2.7928460   0.0000000   0.0000000   2.7928460   0.0000000   0.0000000   2.7928460
 AtZNuc=   1.0000000   1.0000000   1.0000000   1.0000000   8.0000000   6.0000000   1.0000000   8.0000000   6.0000000   1.0000000

  Atom        21          22
 IAtWgt=           1           1
 AtmWgt=   1.0078250   1.0078250
 NucSpn=           1           1
 AtZEff=  -0.0000000  -0.0000000
 NQMom=    0.0000000   0.0000000
 NMagM=    2.7928460   2.7928460
 AtZNuc=   1.0000000   1.0000000
 Leave Link  101 at Mon May 25 01:54:14 2020, MaxMem=  8589934592 cpu:               1.6 elap:               0.1
 (Enter /opt/software/g16/l202.exe)
                          Input orientation:                          
 ---------------------------------------------------------------------
 Center     Atomic      Atomic             Coordinates (Angstroms)
 Number     Number       Type             X           Y           Z
 ---------------------------------------------------------------------
      1          6           0        0.053002    1.395148   -0.464772
      2          6           0        0.270041    1.340728    0.910965
      3          1           0        0.896925    1.615800   -1.117910
      4          1           0       -0.893216    1.841875   -0.771231
      5          1           0       -0.469878    1.671592    1.640504
      6          6           0       -0.224225   -0.496772   -1.256459
      7          6           0        0.462881   -1.421490   -0.464936
      8          6           0        0.157646   -1.523238    0.896239
      9          6           0       -0.809858   -0.733925    1.493896
     10          1           0       -1.295783   -0.373208   -1.094853
     11          1           0        0.082361   -0.362125   -2.296745
     12          1           0        1.366971   -1.900401   -0.846941
     13          1           0        0.819640   -2.104683    1.546692
     14          1           0       -1.638365   -0.295705    0.936221
     15          8           0        1.473390    1.138580    1.459564
     16          6           0       -0.901065   -0.618541    2.946889
     17          1           0       -0.169600   -1.243472    3.519224
     18          8           0       -1.661691    0.125552    3.522564
     19          6           0        2.617038    1.116815    0.633722
     20          1           0        3.463681    0.874907    1.285061
     21          1           0        2.538856    0.356448   -0.154888
     22          1           0        2.784944    2.106048    0.175508
 ---------------------------------------------------------------------
                    Distance matrix (angstroms):
                    1          2          3          4          5
     1  C    0.000000
     2  C    1.393815   0.000000
     3  H    1.089717   2.141257   0.000000
     4  H    1.090326   2.105730   1.837363   0.000000
     5  H    2.186781   1.090495   3.078979   2.454522   0.000000
     6  C    2.069537   2.884169   2.395649   2.480376   3.626919
     7  C    2.846305   3.091947   3.136861   3.547163   3.856173
     8  C    3.221844   2.866208   3.802222   3.899840   3.339859
     9  C    3.018917   2.410431   3.905873   3.431107   2.433843
    10  H    2.311559   3.068010   2.960516   2.274507   3.513617
    11  H    2.538700   3.636528   2.442407   2.852466   4.465748
    12  H    3.568362   3.846870   3.557814   4.372506   4.724461
    13  H    4.108837   3.546416   4.576906   4.886918   3.991480
    14  H    2.771730   2.514073   3.781666   2.835470   2.394083
    15  O    2.405493   1.337862   2.683919   3.327446   2.023149
    16  C    4.074876   3.058629   4.974700   4.458489   2.671568
    17  H    4.783732   3.697890   5.551209   5.333947   3.480999
    18  O    4.522267   3.468240   5.504667   4.687536   2.711606
    19  C    2.803291   2.373899   2.505192   3.849869   3.294000
    20  H    3.868501   3.249042   3.593248   4.913849   4.029136
    21  H    2.711899   2.693023   2.282393   3.790183   3.742394
    22  H    2.894623   2.729716   2.340489   3.807225   3.595668
                    6          7          8          9         10
     6  C    0.000000
     7  C    1.397758   0.000000
     8  C    2.415278   1.398685   0.000000
     9  C    2.821996   2.435084   1.384295   0.000000
    10  H    1.090698   2.142099   2.720197   2.658545   0.000000
    11  H    1.092849   2.150017   3.398382   3.911937   1.828647
    12  H    2.160968   1.092091   2.154854   3.402759   3.079616
    13  H    3.395981   2.154223   1.095173   2.130030   3.801418
    14  H    2.616881   2.765116   2.175797   1.090625   2.061221
    15  O    3.596256   3.358391   3.022216   2.953079   4.059417
    16  C    4.259234   3.761067   2.478812   1.460418   4.068374
    17  H    4.834014   4.037976   2.658084   2.184381   4.828598
    18  O    5.029180   4.775699   3.595286   2.362163   4.658668
    19  C    3.774814   3.505772   3.617652   3.988578   4.529714
    20  H    4.684173   4.164220   4.102700   4.571115   5.465737
    21  H    3.094521   2.750794   3.210646   3.888610   4.015020
    22  H    4.228510   4.271495   4.538046   4.767200   4.940937
                   11         12         13         14         15
    11  H    0.000000
    12  H    2.473550   0.000000
    13  H    4.283935   2.463896   0.000000
    14  H    3.662974   3.845356   3.112373   0.000000
    15  O    4.277492   3.816634   3.309643   3.466133   0.000000
    16  C    5.341215   4.602206   2.670205   2.165784   3.307211
    17  H    5.887763   4.675040   2.368789   3.118884   3.551871
    18  O    6.094580   5.689451   3.877502   2.620529   3.887278
    19  C    4.147227   3.585892   3.800290   4.493904   1.410822
    20  H    5.078672   4.079701   3.992162   5.246227   2.015250
    21  H    3.337404   2.635454   3.450832   4.366348   2.086481
    22  H    4.416771   4.371234   4.844876   5.090458   2.074842
                   16         17         18         19         20
    16  C    0.000000
    17  H    1.119441   0.000000
    18  O    1.209805   2.024987   0.000000
    19  C    4.554037   4.654291   5.256951   0.000000
    20  H    4.903373   4.762326   5.642463   1.095247   0.000000
    21  H    4.733358   4.836794   5.587626   1.098261   1.788171
    22  H    5.356361   5.579341   5.907428   1.103057   1.790949
                   21         22
    21  H    0.000000
    22  H    1.797448   0.000000
 Symmetry turned off by external request.
 Stoichiometry    C8H12O2
 Framework group  C1[X(C8H12O2)]
 Deg. of freedom    60
 Full point group                 C1      NOp   1
 Rotational constants (GHZ):           1.6331293           1.0636142           0.8538065
 Leave Link  202 at Mon May 25 01:54:14 2020, MaxMem=  8589934592 cpu:               0.3 elap:               0.0
 (Enter /opt/software/g16/l301.exe)
 Standard basis: def2SVP (5D, 7F)
 Ernie: Thresh=  0.10000D-02 Tol=  0.10000D-05 Strict=F.
   200 basis functions,   334 primitive gaussians,   210 cartesian basis functions
    38 alpha electrons       38 beta electrons
       nuclear repulsion energy       535.4528584854 Hartrees.
 IExCor= 4336 DFT=T Ex+Corr=M062X ExCW=0 ScaHFX=  0.540000
 ScaDFX=  1.000000  1.000000  1.000000  1.000000 ScalE2=  1.000000  1.000000
 IRadAn=      5 IRanWt=     -1 IRanGd=            0 ICorTp=0 IEmpDi=131
 NAtoms=   22 NActive=   22 NUniq=   22 SFac= 1.00D+00 NAtFMM=   60 NAOKFM=F Big=F
 Integral buffers will be    131072 words long.
 Raffenetti 2 integral format.
 Two-electron integral symmetry is turned off.
 R6Disp:  Grimme-D3 Dispersion energy=       -0.0008416383 Hartrees.
 Nuclear repulsion after empirical dispersion term =      535.4520168471 Hartrees.
 Leave Link  301 at Mon May 25 01:54:14 2020, MaxMem=  8589934592 cpu:               0.8 elap:               0.1
 (Enter /opt/software/g16/l302.exe)
 NPDir=0 NMtPBC=     1 NCelOv=     1 NCel=       1 NClECP=     1 NCelD=      1
         NCelK=      1 NCelE2=     1 NClLst=     1 CellRange=     0.0.
 One-electron integrals computed using PRISM.
   1 Symmetry operations used in ECPInt.
 ECPInt:  NShTT=    4656 NPrTT=   16456 LenC2=    4608 LenP2D=   12938.
 LDataN:  DoStor=T MaxTD1= 4 Len=   56
 NBasis=   200 RedAO= T EigKep=  6.82D-04  NBF=   200
 NBsUse=   200 1.00D-06 EigRej= -1.00D+00 NBFU=   200
 Precomputing XC quadrature grid using
 IXCGrd= 4 IRadAn=           5 IRanWt=          -1 IRanGd=           0 AccXCQ= 0.00D+00.
 Generated NRdTot=       0 NPtTot=           0 NUsed=           0 NTot=          32
 NSgBfM=   210   210   210   210   210 MxSgAt=    22 MxSgA2=    22.
 Leave Link  302 at Mon May 25 01:54:14 2020, MaxMem=  8589934592 cpu:               3.7 elap:               0.3
 (Enter /opt/software/g16/l303.exe)
 DipDrv:  MaxL=1.
 Leave Link  303 at Mon May 25 01:54:14 2020, MaxMem=  8589934592 cpu:               0.5 elap:               0.1
 (Enter /opt/software/g16/l401.exe)
 ExpMin= 1.22D-01 ExpMax= 2.27D+03 ExpMxC= 3.41D+02 IAcc=3 IRadAn=         5 AccDes= 0.00D+00
 Harris functional with IExCor= 1009 and IRadAn=       5 diagonalized for initial guess.
 HarFok:  IExCor= 1009 AccDes= 0.00D+00 IRadAn=         5 IDoV= 1 UseB2=F ITyADJ=14
 ICtDFT=  3500011 ScaDFX=  1.000000  1.000000  1.000000  1.000000
 FoFCou: FMM=F IPFlag=           0 FMFlag=      100000 FMFlg1=           0
         NFxFlg=           0 DoJE=T BraDBF=F KetDBF=T FulRan=T
         wScrn=  0.000000 ICntrl=       500 IOpCl=  0 I1Cent=   200000004 NGrid=           0
         NMat0=    1 NMatS0=      1 NMatT0=    0 NMatD0=    1 NMtDS0=    0 NMtDT0=    0
 Symmetry not used in FoFCou.
 Harris En= -461.656879832885    
 JPrj=0 DoOrth=F DoCkMO=F.
 Leave Link  401 at Mon May 25 01:54:15 2020, MaxMem=  8589934592 cpu:               8.8 elap:               0.6
 (Enter /opt/software/g16/l502.exe)
 Two-electron integral symmetry not used.
 Closed shell SCF:
 Using DIIS extrapolation, IDIIS=  1040.
 NGot=  8589934592 LenX=  8589841134 LenY=  8589796593
 Requested convergence on RMS density matrix=1.00D-08 within 200 cycles.
 Requested convergence on MAX density matrix=1.00D-06.
 Requested convergence on             energy=1.00D-06.
 No special actions if energy rises.
 Fock matrices will be formed incrementally for  20 cycles.
 Integral accuracy reduced to 1.0D-05 until final iterations.

 Cycle   1  Pass 0  IDiag  1:
 FoFJK:  IHMeth= 1 ICntrl=       0 DoSepK=F KAlg= 0 I1Cent=           0 FoldK=F
 IRaf= 970000000 NMat=       1 IRICut=       1 DoRegI=T DoRafI=F ISym2E= 0 IDoP0=0 IntGTp=1.
 FoFCou: FMM=F IPFlag=           0 FMFlag=      100000 FMFlg1=           0
         NFxFlg=           0 DoJE=F BraDBF=F KetDBF=F FulRan=T
         wScrn=  0.000000 ICntrl=         0 IOpCl=  0 I1Cent=           0 NGrid=           0
         NMat0=    1 NMatS0=      1 NMatT0=    0 NMatD0=    1 NMtDS0=    0 NMtDT0=    0
 Symmetry not used in FoFCou.
 E= -461.599672875818    
 DIIS: error= 3.11D-02 at cycle   1 NSaved=   1.
 NSaved= 1 IEnMin= 1 EnMin= -461.599672875818     IErMin= 1 ErrMin= 3.11D-02
 ErrMax= 3.11D-02  0.00D+00 EMaxC= 1.00D-01 BMatC= 2.31D-01 BMatP= 2.31D-01
 IDIUse=3 WtCom= 6.89D-01 WtEn= 3.11D-01
 Coeff-Com:  0.100D+01
 Coeff-En:   0.100D+01
 Coeff:      0.100D+01
 Gap=     0.218 Goal=   None    Shift=    0.000
 GapD=    0.218 DampG=1.000 DampE=0.500 DampFc=0.5000 IDamp=-1.
 Damping current iteration by 5.00D-01
 RMSDP=5.73D-03 MaxDP=3.26D-01              OVMax= 2.38D-01

 Cycle   2  Pass 0  IDiag  1:
 RMSU=  2.85D-03    CP:  9.87D-01
 E= -461.715393846515     Delta-E=       -0.115720970697 Rises=F Damp=T
 DIIS: error= 7.19D-03 at cycle   2 NSaved=   2.
 NSaved= 2 IEnMin= 2 EnMin= -461.715393846515     IErMin= 2 ErrMin= 7.19D-03
 ErrMax= 7.19D-03  0.00D+00 EMaxC= 1.00D-01 BMatC= 1.90D-02 BMatP= 2.31D-01
 IDIUse=3 WtCom= 9.28D-01 WtEn= 7.19D-02
 Coeff-Com: -0.543D-01 0.105D+01
 Coeff-En:   0.000D+00 0.100D+01
 Coeff:     -0.504D-01 0.105D+01
 Gap=     0.229 Goal=   None    Shift=    0.000
 RMSDP=1.50D-03 MaxDP=5.90D-02 DE=-1.16D-01 OVMax= 1.36D-01

 Cycle   3  Pass 0  IDiag  1:
 RMSU=  1.47D-03    CP:  9.75D-01  9.76D-01
 E= -461.823857288776     Delta-E=       -0.108463442261 Rises=F Damp=F
 DIIS: error= 7.19D-03 at cycle   3 NSaved=   3.
 NSaved= 3 IEnMin= 3 EnMin= -461.823857288776     IErMin= 2 ErrMin= 7.19D-03
 ErrMax= 7.19D-03  0.00D+00 EMaxC= 1.00D-01 BMatC= 1.01D-02 BMatP= 1.90D-02
 IDIUse=3 WtCom= 9.28D-01 WtEn= 7.19D-02
 Coeff-Com: -0.829D-01 0.461D+00 0.622D+00
 Coeff-En:   0.000D+00 0.000D+00 0.100D+01
 Coeff:     -0.769D-01 0.428D+00 0.649D+00
 Gap=     0.221 Goal=   None    Shift=    0.000
 RMSDP=8.16D-04 MaxDP=4.70D-02 DE=-1.08D-01 OVMax= 4.10D-02

 Cycle   4  Pass 0  IDiag  1:
 RMSU=  5.98D-04    CP:  9.80D-01  1.09D+00  7.08D-01
 E= -461.830912513668     Delta-E=       -0.007055224891 Rises=F Damp=F
 DIIS: error= 3.58D-03 at cycle   4 NSaved=   4.
 NSaved= 4 IEnMin= 4 EnMin= -461.830912513668     IErMin= 4 ErrMin= 3.58D-03
 ErrMax= 3.58D-03  0.00D+00 EMaxC= 1.00D-01 BMatC= 2.26D-03 BMatP= 1.01D-02
 IDIUse=3 WtCom= 9.64D-01 WtEn= 3.58D-02
 Coeff-Com: -0.219D-01 0.729D-01 0.344D+00 0.605D+00
 Coeff-En:   0.000D+00 0.000D+00 0.165D+00 0.835D+00
 Coeff:     -0.211D-01 0.703D-01 0.338D+00 0.613D+00
 Gap=     0.221 Goal=   None    Shift=    0.000
 RMSDP=3.62D-04 MaxDP=2.44D-02 DE=-7.06D-03 OVMax= 9.83D-03

 Cycle   5  Pass 0  IDiag  1:
 RMSU=  1.91D-04    CP:  9.78D-01  1.05D+00  8.06D-01  6.06D-01
 E= -461.832800160494     Delta-E=       -0.001887646827 Rises=F Damp=F
 DIIS: error= 4.16D-04 at cycle   5 NSaved=   5.
 NSaved= 5 IEnMin= 5 EnMin= -461.832800160494     IErMin= 5 ErrMin= 4.16D-04
 ErrMax= 4.16D-04  0.00D+00 EMaxC= 1.00D-01 BMatC= 7.29D-05 BMatP= 2.26D-03
 IDIUse=3 WtCom= 9.96D-01 WtEn= 4.16D-03
 Coeff-Com: -0.370D-02 0.433D-02 0.110D+00 0.251D+00 0.638D+00
 Coeff-En:   0.000D+00 0.000D+00 0.000D+00 0.000D+00 0.100D+01
 Coeff:     -0.369D-02 0.431D-02 0.110D+00 0.250D+00 0.640D+00
 Gap=     0.222 Goal=   None    Shift=    0.000
 RMSDP=6.72D-05 MaxDP=1.87D-03 DE=-1.89D-03 OVMax= 4.09D-03

 Cycle   6  Pass 0  IDiag  1:
 RMSU=  4.98D-05    CP:  9.78D-01  1.05D+00  8.15D-01  6.59D-01  8.48D-01
 E= -461.832878102016     Delta-E=       -0.000077941521 Rises=F Damp=F
 DIIS: error= 2.45D-04 at cycle   6 NSaved=   6.
 NSaved= 6 IEnMin= 6 EnMin= -461.832878102016     IErMin= 6 ErrMin= 2.45D-04
 ErrMax= 2.45D-04  0.00D+00 EMaxC= 1.00D-01 BMatC= 1.04D-05 BMatP= 7.29D-05
 IDIUse=3 WtCom= 9.98D-01 WtEn= 2.45D-03
 Coeff-Com:  0.132D-02-0.652D-02 0.148D-01 0.385D-01 0.272D+00 0.680D+00
 Coeff-En:   0.000D+00 0.000D+00 0.000D+00 0.000D+00 0.000D+00 0.100D+01
 Coeff:      0.131D-02-0.650D-02 0.147D-01 0.384D-01 0.272D+00 0.680D+00
 Gap=     0.222 Goal=   None    Shift=    0.000
 RMSDP=3.60D-05 MaxDP=1.79D-03 DE=-7.79D-05 OVMax= 3.23D-03

 Cycle   7  Pass 0  IDiag  1:
 RMSU=  2.47D-05    CP:  9.78D-01  1.05D+00  8.21D-01  6.61D-01  9.63D-01
                    CP:  8.94D-01
 E= -461.832892782685     Delta-E=       -0.000014680669 Rises=F Damp=F
 DIIS: error= 7.66D-05 at cycle   7 NSaved=   7.
 NSaved= 7 IEnMin= 7 EnMin= -461.832892782685     IErMin= 7 ErrMin= 7.66D-05
 ErrMax= 7.66D-05  0.00D+00 EMaxC= 1.00D-01 BMatC= 2.05D-06 BMatP= 1.04D-05
 IDIUse=1 WtCom= 1.00D+00 WtEn= 0.00D+00
 Coeff-Com:  0.154D-02-0.389D-02-0.152D-01-0.417D-01-0.366D-01 0.274D+00
 Coeff-Com:  0.822D+00
 Coeff:      0.154D-02-0.389D-02-0.152D-01-0.417D-01-0.366D-01 0.274D+00
 Coeff:      0.822D+00
 Gap=     0.222 Goal=   None    Shift=    0.000
 RMSDP=1.90D-05 MaxDP=9.18D-04 DE=-1.47D-05 OVMax= 1.17D-03

 Cycle   8  Pass 0  IDiag  1:
 RMSU=  8.05D-06    CP:  9.77D-01  1.04D+00  8.25D-01  6.60D-01  1.02D+00
                    CP:  1.10D+00  1.03D+00
 E= -461.832896593098     Delta-E=       -0.000003810414 Rises=F Damp=F
 DIIS: error= 3.30D-05 at cycle   8 NSaved=   8.
 NSaved= 8 IEnMin= 8 EnMin= -461.832896593098     IErMin= 8 ErrMin= 3.30D-05
 ErrMax= 3.30D-05  0.00D+00 EMaxC= 1.00D-01 BMatC= 2.30D-07 BMatP= 2.05D-06
 IDIUse=1 WtCom= 1.00D+00 WtEn= 0.00D+00
 Coeff-Com:  0.488D-03-0.491D-03-0.782D-02-0.247D-01-0.658D-01 0.729D-02
 Coeff-Com:  0.300D+00 0.791D+00
 Coeff:      0.488D-03-0.491D-03-0.782D-02-0.247D-01-0.658D-01 0.729D-02
 Coeff:      0.300D+00 0.791D+00
 Gap=     0.222 Goal=   None    Shift=    0.000
 RMSDP=7.81D-06 MaxDP=4.26D-04 DE=-3.81D-06 OVMax= 5.99D-04

 Initial convergence to 1.0D-05 achieved.  Increase integral accuracy.
 Cycle   9  Pass 1  IDiag  1:
 E= -461.832849965778     Delta-E=        0.000046627320 Rises=F Damp=F
 DIIS: error= 2.43D-05 at cycle   1 NSaved=   1.
 NSaved= 1 IEnMin= 1 EnMin= -461.832849965778     IErMin= 1 ErrMin= 2.43D-05
 ErrMax= 2.43D-05  0.00D+00 EMaxC= 1.00D-01 BMatC= 1.82D-07 BMatP= 1.82D-07
 IDIUse=1 WtCom= 1.00D+00 WtEn= 0.00D+00
 Coeff-Com:  0.100D+01
 Coeff:      0.100D+01
 Gap=     0.222 Goal=   None    Shift=    0.000
 RMSDP=7.81D-06 MaxDP=4.26D-04 DE= 4.66D-05 OVMax= 2.28D-04

 Cycle  10  Pass 1  IDiag  1:
 RMSU=  1.05D-05    CP:  1.00D+00
 E= -461.832850189745     Delta-E=       -0.000000223967 Rises=F Damp=F
 DIIS: error= 8.50D-06 at cycle   2 NSaved=   2.
 NSaved= 2 IEnMin= 2 EnMin= -461.832850189745     IErMin= 2 ErrMin= 8.50D-06
 ErrMax= 8.50D-06  0.00D+00 EMaxC= 1.00D-01 BMatC= 2.40D-08 BMatP= 1.82D-07
 IDIUse=1 WtCom= 1.00D+00 WtEn= 0.00D+00
 Coeff-Com:  0.123D+00 0.877D+00
 Coeff:      0.123D+00 0.877D+00
 Gap=     0.222 Goal=   None    Shift=    0.000
 RMSDP=2.33D-06 MaxDP=6.26D-05 DE=-2.24D-07 OVMax= 1.37D-04

 Cycle  11  Pass 1  IDiag  1:
 RMSU=  2.10D-06    CP:  1.00D+00  1.10D+00
 E= -461.832850196693     Delta-E=       -0.000000006948 Rises=F Damp=F
 DIIS: error= 9.13D-06 at cycle   3 NSaved=   3.
 NSaved= 3 IEnMin= 3 EnMin= -461.832850196693     IErMin= 2 ErrMin= 8.50D-06
 ErrMax= 9.13D-06  0.00D+00 EMaxC= 1.00D-01 BMatC= 2.71D-08 BMatP= 2.40D-08
 IDIUse=1 WtCom= 1.00D+00 WtEn= 0.00D+00
 Coeff-Com: -0.524D-01 0.530D+00 0.522D+00
 Coeff:     -0.524D-01 0.530D+00 0.522D+00
 Gap=     0.222 Goal=   None    Shift=    0.000
 RMSDP=1.08D-06 MaxDP=2.78D-05 DE=-6.95D-09 OVMax= 8.52D-05

 Cycle  12  Pass 1  IDiag  1:
 RMSU=  7.26D-07    CP:  1.00D+00  1.12D+00  6.47D-01
 E= -461.832850228768     Delta-E=       -0.000000032076 Rises=F Damp=F
 DIIS: error= 1.13D-06 at cycle   4 NSaved=   4.
 NSaved= 4 IEnMin= 4 EnMin= -461.832850228768     IErMin= 4 ErrMin= 1.13D-06
 ErrMax= 1.13D-06  0.00D+00 EMaxC= 1.00D-01 BMatC= 2.65D-10 BMatP= 2.40D-08
 IDIUse=1 WtCom= 1.00D+00 WtEn= 0.00D+00
 Coeff-Com: -0.851D-02-0.246D-01 0.542D-02 0.103D+01
 Coeff:     -0.851D-02-0.246D-01 0.542D-02 0.103D+01
 Gap=     0.222 Goal=   None    Shift=    0.000
 RMSDP=3.38D-07 MaxDP=1.05D-05 DE=-3.21D-08 OVMax= 2.65D-05

 Cycle  13  Pass 1  IDiag  1:
 RMSU=  1.75D-07    CP:  1.00D+00  1.14D+00  7.28D-01  1.28D+00
 E= -461.832850230006     Delta-E=       -0.000000001237 Rises=F Damp=F
 DIIS: error= 4.55D-07 at cycle   5 NSaved=   5.
 NSaved= 5 IEnMin= 5 EnMin= -461.832850230006     IErMin= 5 ErrMin= 4.55D-07
 ErrMax= 4.55D-07  0.00D+00 EMaxC= 1.00D-01 BMatC= 1.19D-10 BMatP= 2.65D-10
 IDIUse=1 WtCom= 1.00D+00 WtEn= 0.00D+00
 Coeff-Com:  0.704D-02-0.111D+00-0.104D+00 0.433D+00 0.776D+00
 Coeff:      0.704D-02-0.111D+00-0.104D+00 0.433D+00 0.776D+00
 Gap=     0.222 Goal=   None    Shift=    0.000
 RMSDP=1.75D-07 MaxDP=5.59D-06 DE=-1.24D-09 OVMax= 1.52D-05

 Cycle  14  Pass 1  IDiag  1:
 RMSU=  8.66D-08    CP:  1.00D+00  1.14D+00  7.48D-01  1.47D+00  1.07D+00
 E= -461.832850230320     Delta-E=       -0.000000000314 Rises=F Damp=F
 DIIS: error= 2.52D-07 at cycle   6 NSaved=   6.
 NSaved= 6 IEnMin= 6 EnMin= -461.832850230320     IErMin= 6 ErrMin= 2.52D-07
 ErrMax= 2.52D-07  0.00D+00 EMaxC= 1.00D-01 BMatC= 1.45D-11 BMatP= 1.19D-10
 IDIUse=1 WtCom= 1.00D+00 WtEn= 0.00D+00
 Coeff-Com:  0.324D-02-0.339D-01-0.379D-01 0.967D-02 0.281D+00 0.777D+00
 Coeff:      0.324D-02-0.339D-01-0.379D-01 0.967D-02 0.281D+00 0.777D+00
 Gap=     0.222 Goal=   None    Shift=    0.000
 RMSDP=5.71D-08 MaxDP=9.75D-07 DE=-3.14D-10 OVMax= 4.78D-06

 Cycle  15  Pass 1  IDiag  1:
 RMSU=  3.09D-08    CP:  1.00D+00  1.14D+00  7.55D-01  1.53D+00  1.20D+00
                    CP:  1.07D+00
 E= -461.832850230353     Delta-E=       -0.000000000033 Rises=F Damp=F
 DIIS: error= 1.02D-07 at cycle   7 NSaved=   7.
 NSaved= 7 IEnMin= 7 EnMin= -461.832850230353     IErMin= 7 ErrMin= 1.02D-07
 ErrMax= 1.02D-07  0.00D+00 EMaxC= 1.00D-01 BMatC= 2.96D-12 BMatP= 1.45D-11
 IDIUse=1 WtCom= 1.00D+00 WtEn= 0.00D+00
 Coeff-Com:  0.365D-03 0.254D-02-0.104D-02-0.691D-01-0.807D-02 0.342D+00
 Coeff-Com:  0.733D+00
 Coeff:      0.365D-03 0.254D-02-0.104D-02-0.691D-01-0.807D-02 0.342D+00
 Coeff:      0.733D+00
 Gap=     0.222 Goal=   None    Shift=    0.000
 RMSDP=2.31D-08 MaxDP=7.88D-07 DE=-3.31D-11 OVMax= 1.94D-06

 Cycle  16  Pass 1  IDiag  1:
 RMSU=  9.41D-09    CP:  1.00D+00  1.14D+00  7.58D-01  1.54D+00  1.26D+00
                    CP:  1.19D+00  9.07D-01
 E= -461.832850230363     Delta-E=       -0.000000000010 Rises=F Damp=F
 DIIS: error= 3.56D-08 at cycle   8 NSaved=   8.
 NSaved= 8 IEnMin= 8 EnMin= -461.832850230363     IErMin= 8 ErrMin= 3.56D-08
 ErrMax= 3.56D-08  0.00D+00 EMaxC= 1.00D-01 BMatC= 3.78D-13 BMatP= 2.96D-12
 IDIUse=1 WtCom= 1.00D+00 WtEn= 0.00D+00
 Coeff-Com: -0.214D-03 0.513D-02 0.390D-02-0.319D-01-0.385D-01 0.685D-01
 Coeff-Com:  0.339D+00 0.654D+00
 Coeff:     -0.214D-03 0.513D-02 0.390D-02-0.319D-01-0.385D-01 0.685D-01
 Coeff:      0.339D+00 0.654D+00
 Gap=     0.222 Goal=   None    Shift=    0.000
 RMSDP=6.13D-09 MaxDP=2.74D-07 DE=-9.78D-12 OVMax= 3.49D-07

 SCF Done:  E(RM062X) =  -461.832850230     A.U. after   16 cycles
            NFock= 16  Conv=0.61D-08     -V/T= 2.0101
 KE= 4.572136869112D+02 PE=-2.145049193102D+03 EE= 6.905506391137D+02
 Leave Link  502 at Mon May 25 01:54:30 2020, MaxMem=  8589934592 cpu:             243.8 elap:              15.3
 (Enter /opt/software/g16/l601.exe)
 Copying SCF densities to generalized density rwf, IOpCl= 0 IROHF=0.

 **********************************************************************

            Population analysis using the SCF Density.

 **********************************************************************

 Alpha  occ. eigenvalues --  -19.67606 -19.60718 -10.63744 -10.62124 -10.61915
 Alpha  occ. eigenvalues --  -10.58300 -10.57218 -10.56198 -10.55113 -10.54979
 Alpha  occ. eigenvalues --   -1.19485  -1.13236  -0.91665  -0.86344  -0.83318
 Alpha  occ. eigenvalues --   -0.80170  -0.73112  -0.66524  -0.64782  -0.61441
 Alpha  occ. eigenvalues --   -0.60226  -0.57040  -0.56244  -0.55305  -0.52890
 Alpha  occ. eigenvalues --   -0.49549  -0.49004  -0.48368  -0.46961  -0.46052
 Alpha  occ. eigenvalues --   -0.43605  -0.43483  -0.41863  -0.40558  -0.39208
 Alpha  occ. eigenvalues --   -0.31579  -0.30789  -0.24913
 Alpha virt. eigenvalues --   -0.02695   0.03232   0.08261   0.08605   0.10354
 Alpha virt. eigenvalues --    0.12461   0.12675   0.14440   0.15879   0.16103
 Alpha virt. eigenvalues --    0.16625   0.16962   0.18192   0.19014   0.20346
 Alpha virt. eigenvalues --    0.21712   0.23966   0.28682   0.29555   0.31668
 Alpha virt. eigenvalues --    0.33821   0.36638   0.38343   0.40823   0.44130
 Alpha virt. eigenvalues --    0.44509   0.46411   0.48534   0.50599   0.51095
 Alpha virt. eigenvalues --    0.51614   0.53495   0.54696   0.56269   0.57697
 Alpha virt. eigenvalues --    0.60088   0.60786   0.64449   0.65553   0.66889
 Alpha virt. eigenvalues --    0.67904   0.68682   0.69122   0.69875   0.70334
 Alpha virt. eigenvalues --    0.71344   0.72805   0.73263   0.73624   0.74626
 Alpha virt. eigenvalues --    0.76031   0.76576   0.77008   0.77864   0.78476
 Alpha virt. eigenvalues --    0.80948   0.82309   0.84064   0.84946   0.87892
 Alpha virt. eigenvalues --    0.91317   0.91973   0.97238   0.99040   1.05336
 Alpha virt. eigenvalues --    1.06408   1.08437   1.11363   1.14113   1.14443
 Alpha virt. eigenvalues --    1.19686   1.24218   1.27701   1.29631   1.33499
 Alpha virt. eigenvalues --    1.34349   1.35527   1.36011   1.39398   1.41829
 Alpha virt. eigenvalues --    1.45404   1.47956   1.50211   1.53592   1.55398
 Alpha virt. eigenvalues --    1.59374   1.59536   1.64753   1.66685   1.68930
 Alpha virt. eigenvalues --    1.70759   1.71087   1.74341   1.76147   1.77699
 Alpha virt. eigenvalues --    1.78758   1.80745   1.82309   1.83347   1.84321
 Alpha virt. eigenvalues --    1.85364   1.85810   1.88337   1.88619   1.90670
 Alpha virt. eigenvalues --    1.91821   1.92717   1.94987   1.96570   1.97065
 Alpha virt. eigenvalues --    1.98699   2.00850   2.01951   2.03559   2.06338
 Alpha virt. eigenvalues --    2.10434   2.10686   2.14674   2.14873   2.18290
 Alpha virt. eigenvalues --    2.19480   2.21747   2.23229   2.24950   2.28712
 Alpha virt. eigenvalues --    2.29535   2.36581   2.39124   2.40309   2.42351
 Alpha virt. eigenvalues --    2.47525   2.48631   2.50187   2.51258   2.55666
 Alpha virt. eigenvalues --    2.58988   2.63456   2.65398   2.68766   2.72024
 Alpha virt. eigenvalues --    2.74854   2.78382   2.80404   2.83001   2.84085
 Alpha virt. eigenvalues --    2.84343   2.86293   2.89463   2.90370   2.93067
 Alpha virt. eigenvalues --    2.94472   3.04375   3.05387   3.13868   3.19302
 Alpha virt. eigenvalues --    3.21138   3.24195   3.39851   3.50084   3.52242
 Alpha virt. eigenvalues --    3.57352   3.68818
          Condensed to atoms (all electrons):
               1          2          3          4          5          6
     1  C    4.957791   0.532743   0.380825   0.360659  -0.037872   0.140753
     2  C    0.532743   4.619718  -0.011583   0.005273   0.387825  -0.033366
     3  H    0.380825  -0.011583   0.602849  -0.028250   0.003840  -0.008637
     4  H    0.360659   0.005273  -0.028250   0.609500  -0.008718  -0.007395
     5  H   -0.037872   0.387825   0.003840  -0.008718   0.610375   0.002955
     6  C    0.140753  -0.033366  -0.008637  -0.007395   0.002955   4.778342
     7  C   -0.033418  -0.042283  -0.007364   0.000700   0.003489   0.495103
     8  C   -0.065841  -0.013298  -0.000628   0.003123  -0.002920  -0.005191
     9  C   -0.000243   0.149704   0.002404  -0.002073  -0.033425  -0.054132
    10  H   -0.012572  -0.016132   0.001429  -0.010320   0.000789   0.363266
    11  H   -0.013165   0.004160  -0.005418   0.002045  -0.000210   0.386093
    12  H    0.002494  -0.000498   0.000416  -0.000216   0.000049  -0.068222
    13  H    0.000167  -0.000202   0.000020   0.000006  -0.000024   0.011937
    14  H   -0.017941  -0.001524   0.000019   0.003112  -0.002680   0.015408
    15  O   -0.058346   0.352734  -0.009162   0.003415  -0.027387  -0.001484
    16  C    0.001588  -0.016668  -0.000042  -0.000060   0.003729   0.001437
    17  H   -0.000264  -0.000776   0.000005   0.000002   0.001900   0.000074
    18  O   -0.000062  -0.006752  -0.000003  -0.000012   0.017177   0.000054
    19  C    0.004053  -0.058293   0.012104  -0.000053   0.004106  -0.006143
    20  H    0.000259   0.005934  -0.000097  -0.000012  -0.000161   0.000046
    21  H    0.010892  -0.012179  -0.002824  -0.000203  -0.000518  -0.000177
    22  H    0.001065  -0.004476   0.000976   0.000323   0.000541   0.000585
               7          8          9         10         11         12
     1  C   -0.033418  -0.065841  -0.000243  -0.012572  -0.013165   0.002494
     2  C   -0.042283  -0.013298   0.149704  -0.016132   0.004160  -0.000498
     3  H   -0.007364  -0.000628   0.002404   0.001429  -0.005418   0.000416
     4  H    0.000700   0.003123  -0.002073  -0.010320   0.002045  -0.000216
     5  H    0.003489  -0.002920  -0.033425   0.000789  -0.000210   0.000049
     6  C    0.495103  -0.005191  -0.054132   0.363266   0.386093  -0.068222
     7  C    4.975333   0.378234  -0.026513   0.020438  -0.025587   0.436182
     8  C    0.378234   5.138842   0.158856  -0.034263   0.012525  -0.053673
     9  C   -0.026513   0.158856   5.820807   0.016927   0.000366   0.013653
    10  H    0.020438  -0.034263   0.016927   0.630881  -0.035149   0.007081
    11  H   -0.025587   0.012525   0.000366  -0.035149   0.627996  -0.011456
    12  H    0.436182  -0.053673   0.013653   0.007081  -0.011456   0.658723
    13  H   -0.052628   0.437432  -0.072515  -0.000211  -0.000210  -0.012503
    14  H   -0.032503   0.010344   0.321293  -0.001826   0.000236  -0.000190
    15  O    0.008038   0.018525  -0.050728   0.000182   0.000005  -0.000212
    16  C    0.008486   0.015966   0.173431   0.000096  -0.000037  -0.000192
    17  H   -0.000315   0.013740  -0.160223  -0.000049   0.000002   0.000019
    18  O   -0.000210   0.008045  -0.117472  -0.000053  -0.000000   0.000001
    19  C   -0.001158  -0.002594   0.001819   0.000078   0.000037  -0.001080
    20  H    0.000098  -0.000063   0.000083   0.000002  -0.000003   0.000051
    21  H    0.003677  -0.002745   0.001021  -0.000082   0.000039   0.002894
    22  H    0.001179   0.000976  -0.000766   0.000048  -0.000048  -0.000028
              13         14         15         16         17         18
     1  C    0.000167  -0.017941  -0.058346   0.001588  -0.000264  -0.000062
     2  C   -0.000202  -0.001524   0.352734  -0.016668  -0.000776  -0.006752
     3  H    0.000020   0.000019  -0.009162  -0.000042   0.000005  -0.000003
     4  H    0.000006   0.003112   0.003415  -0.000060   0.000002  -0.000012
     5  H   -0.000024  -0.002680  -0.027387   0.003729   0.001900   0.017177
     6  C    0.011937   0.015408  -0.001484   0.001437   0.000074   0.000054
     7  C   -0.052628  -0.032503   0.008038   0.008486  -0.000315  -0.000210
     8  C    0.437432   0.010344   0.018525   0.015966   0.013740   0.008045
     9  C   -0.072515   0.321293  -0.050728   0.173431  -0.160223  -0.117472
    10  H   -0.000211  -0.001826   0.000182   0.000096  -0.000049  -0.000053
    11  H   -0.000210   0.000236   0.000005  -0.000037   0.000002  -0.000000
    12  H   -0.012503  -0.000190  -0.000212  -0.000192   0.000019   0.000001
    13  H    0.656307   0.007182  -0.000380  -0.009245   0.007601   0.000133
    14  H    0.007182   0.658953   0.000961  -0.014652   0.009959   0.010033
    15  O   -0.000380   0.000961   7.898817   0.006194  -0.000091   0.000033
    16  C   -0.009245  -0.014652   0.006194   4.565316   0.432898   0.654618
    17  H    0.007601   0.009959  -0.000091   0.432898   0.732478  -0.041052
    18  O    0.000133   0.010033   0.000033   0.654618  -0.041052   7.740493
    19  C    0.000266  -0.000015   0.292026  -0.000276   0.000002  -0.000006
    20  H    0.000073   0.000006  -0.024350  -0.000035   0.000013   0.000000
    21  H   -0.000073  -0.000001  -0.029363   0.000066   0.000001   0.000000
    22  H   -0.000010   0.000026  -0.031555   0.000029  -0.000001   0.000001
              19         20         21         22
     1  C    0.004053   0.000259   0.010892   0.001065
     2  C   -0.058293   0.005934  -0.012179  -0.004476
     3  H    0.012104  -0.000097  -0.002824   0.000976
     4  H   -0.000053  -0.000012  -0.000203   0.000323
     5  H    0.004106  -0.000161  -0.000518   0.000541
     6  C   -0.006143   0.000046  -0.000177   0.000585
     7  C   -0.001158   0.000098   0.003677   0.001179
     8  C   -0.002594  -0.000063  -0.002745   0.000976
     9  C    0.001819   0.000083   0.001021  -0.000766
    10  H    0.000078   0.000002  -0.000082   0.000048
    11  H    0.000037  -0.000003   0.000039  -0.000048
    12  H   -0.001080   0.000051   0.002894  -0.000028
    13  H    0.000266   0.000073  -0.000073  -0.000010
    14  H   -0.000015   0.000006  -0.000001   0.000026
    15  O    0.292026  -0.024350  -0.029363  -0.031555
    16  C   -0.000276  -0.000035   0.000066   0.000029
    17  H    0.000002   0.000013   0.000001  -0.000001
    18  O   -0.000006   0.000000   0.000000   0.000001
    19  C    4.454747   0.400471   0.401469   0.392608
    20  H    0.400471   0.596144  -0.023634  -0.021393
    21  H    0.401469  -0.023634   0.639414  -0.038321
    22  H    0.392608  -0.021393  -0.038321   0.648310
 Mulliken charges:
               1
     1  C   -0.153565
     2  C    0.159939
     3  H    0.069118
     4  H    0.069156
     5  H    0.077139
     6  C   -0.011308
     7  C   -0.108980
     8  C   -0.015392
     9  C   -0.142271
    10  H    0.069439
    11  H    0.057780
    12  H    0.026705
    13  H    0.026879
    14  H    0.033799
    15  O   -0.347872
    16  C    0.177353
    17  H    0.004073
    18  O   -0.264967
    19  C    0.105831
    20  H    0.066569
    21  H    0.050646
    22  H    0.049929
 Sum of Mulliken charges =   0.00000
 Mulliken charges with hydrogens summed into heavy atoms:
               1
     1  C   -0.015291
     2  C    0.237078
     6  C    0.115912
     7  C   -0.082275
     8  C    0.011486
     9  C   -0.108472
    15  O   -0.347872
    16  C    0.181426
    18  O   -0.264967
    19  C    0.272976
 Electronic spatial extent (au):  <R**2>=           1783.0972
 Charge=              0.0000 electrons
 Dipole moment (field-independent basis, Debye):
    X=              3.1293    Y=              0.5115    Z=             -3.9537  Tot=              5.0681
 Quadrupole moment (field-independent basis, Debye-Ang):
   XX=            -58.2781   YY=            -60.9577   ZZ=            -73.2519
   XY=              0.0178   XZ=              7.2928   YZ=             -4.5439
 Traceless Quadrupole moment (field-independent basis, Debye-Ang):
   XX=              5.8845   YY=              3.2049   ZZ=             -9.0893
   XY=              0.0178   XZ=              7.2928   YZ=             -4.5439
 Octapole moment (field-independent basis, Debye-Ang**2):
  XXX=            -11.2526  YYY=             -4.5769  ZZZ=           -214.9241  XYY=             -7.4270
  XXY=              1.4248  XXZ=            -67.9690  XZZ=             17.5436  YZZ=            -15.9206
  YYZ=            -49.3582  XYZ=              1.5331
 Hexadecapole moment (field-independent basis, Debye-Ang**3):
 XXXX=           -581.4257 YYYY=           -553.8424 ZZZZ=          -1321.6500 XXXY=            -73.2042
 XXXZ=            129.3876 YYYX=           -101.6690 YYYZ=             -2.0459 ZZZX=            194.2853
 ZZZY=            -42.9167 XXYY=           -183.8891 XXZZ=           -350.2856 YYZZ=           -268.4983
 XXYZ=             -3.9078 YYXZ=             24.9061 ZZXY=            -25.3732
 N-N= 5.354520168471D+02 E-N=-2.145049194458D+03  KE= 4.572136869112D+02
 There are a total of      491894 grid points.
 ElSum from          density=       75.9999798154
 ElSum from atomic densities=       75.9999790336
 Hirshfeld populations at iteration   1 (CA, CB, DipXYZ):
               1          2          3          4          5
     1  C    3.039365   3.039365  -0.026223  -0.024503  -0.039195
     2  C    2.957570   2.957570   0.066563  -0.015654   0.061856
     3  H    0.481736   0.481736   0.108060   0.037837  -0.108002
     4  H    0.478044   0.478044  -0.144110   0.064794  -0.047890
     5  H    0.473940   0.473940  -0.100762   0.068173   0.093888
     6  C    3.014081   3.014081  -0.009494   0.050018  -0.029280
     7  C    3.036871   3.036871   0.039926  -0.014430  -0.012941
     8  C    3.020161   3.020161   0.034316  -0.042442   0.020694
     9  C    3.031710   3.031710  -0.031422   0.020832   0.023595
    10  H    0.480010   0.480010  -0.155310   0.013087   0.005019
    11  H    0.480175   0.480175   0.041963   0.017656  -0.150588
    12  H    0.483794   0.483794   0.129359  -0.069356  -0.052249
    13  H    0.480831   0.480831   0.096239  -0.084675   0.080864
    14  H    0.482736   0.482736  -0.123855   0.058208  -0.066786
    15  O    4.065049   4.065049   0.005280   0.016560  -0.151107
    16  C    2.940375   2.940375   0.014280  -0.025249   0.014790
    17  H    0.486628   0.486628   0.076399  -0.065205   0.072035
    18  O    4.134520   4.134520   0.071232  -0.068629  -0.062715
    19  C    2.991982   2.991982  -0.031323   0.004022   0.043968
    20  H    0.475180   0.475180   0.126548  -0.033439   0.087094
    21  H    0.483080   0.483080   0.022834  -0.085739  -0.100710
    22  H    0.482152   0.482152   0.041409   0.123060  -0.058165
       Tot  37.999990  37.999990   0.251907  -0.055073  -0.375826

 Dip from Atomic Chgs              0.979276   0.256296  -1.179693
         Total Dipole              1.231183   0.201222  -1.555519

 Hirshfeld charges, spin densities, dipoles, and CM5 charges using IRadAn=      5:
              Q-H        S-H        Dx         Dy         Dz        Q-CM5   
     1  C   -0.078730   0.000000  -0.026223  -0.024503  -0.039195  -0.181536
     2  C    0.084861   0.000000   0.066563  -0.015654   0.061856   0.052430
     3  H    0.036528   0.000000   0.108060   0.037837  -0.108002   0.093974
     4  H    0.043913   0.000000  -0.144110   0.064794  -0.047890   0.097913
     5  H    0.052121   0.000000  -0.100762   0.068173   0.093888   0.120443
     6  C   -0.028162   0.000000  -0.009494   0.050018  -0.029280  -0.131702
     7  C   -0.073742   0.000000   0.039926  -0.014430  -0.012941  -0.133608
     8  C   -0.040323   0.000000   0.034316  -0.042442   0.020694  -0.096230
     9  C   -0.063421   0.000000  -0.031422   0.020832   0.023595  -0.118512
    10  H    0.039980   0.000000  -0.155310   0.013087   0.005019   0.095865
    11  H    0.039651   0.000000   0.041963   0.017656  -0.150588   0.092250
    12  H    0.032412   0.000000   0.129359  -0.069356  -0.052249   0.087311
    13  H    0.038338   0.000000   0.096239  -0.084675   0.080864   0.094520
    14  H    0.034528   0.000000  -0.123855   0.058208  -0.066786   0.095925
    15  O   -0.130098   0.000000   0.005280   0.016560  -0.151107  -0.231644
    16  C    0.119250   0.000000   0.014280  -0.025249   0.014790   0.106263
    17  H    0.026745   0.000000   0.076399  -0.065205   0.072035   0.087725
    18  O   -0.269040   0.000000   0.071232  -0.068629  -0.062715  -0.325045
    19  C    0.016035   0.000000  -0.031323   0.004022   0.043968  -0.103874
    20  H    0.049640   0.000000   0.126548  -0.033439   0.087094   0.109430
    21  H    0.033839   0.000000   0.022834  -0.085739  -0.100710   0.094140
    22  H    0.035696   0.000000   0.041409   0.123060  -0.058165   0.093982
       Tot   0.000020   0.000000   0.251907  -0.055073  -0.375826   0.000020
 Hirshfeld charges with hydrogens summed into heavy atoms:
              Q-H       Q-CM5   
     1  C    0.001711   0.010350
     2  C    0.136981   0.172874
     6  C    0.051468   0.056413
     7  C   -0.041330  -0.046297
     8  C   -0.001985  -0.001709
     9  C   -0.028892  -0.022587
    15  O   -0.130098  -0.231644
    16  C    0.145994   0.193988
    18  O   -0.269040  -0.325045
    19  C    0.135210   0.193678
 
 EQQ=  0.00000000000     EQD=  0.00000000000     EDD= 0.214618161552E-02
 EQQ+QD+DD= 0.214618161552E-02
 
 No NMR shielding tensors so no spin-rotation constants.
 Leave Link  601 at Mon May 25 01:54:30 2020, MaxMem=  8589934592 cpu:               5.8 elap:               0.4
 (Enter /opt/software/g16/l612.exe)
 Running external command "gaunbo6 R"
         input file       "/tmp/irc_step_000-13723.tmp/Gau-209302.EIn"
         output file      "/tmp/irc_step_000-13723.tmp/Gau-209302.EOu"
         message file     "/tmp/irc_step_000-13723.tmp/Gau-209302.EMs"
         fchk file        "/tmp/irc_step_000-13723.tmp/Gau-209302.EFC"
         mat. el file     "/tmp/irc_step_000-13723.tmp/Gau-209302.EUF"

 Writing WrtUnf unformatted file "/tmp/irc_step_000-13723.tmp/Gau-209302.EUF"
 Gaussian matrix elements                                         Version   2 NLab=11 Len12L=8 Len4L=8
 Write SHELL TO ATOM MAP                   from file     0 offset           0 length                  96 to matrix element file.
 Write SHELL TYPES                         from file     0 offset           0 length                  96 to matrix element file.
 Write NUMBER OF PRIMITIVES PER SHELL      from file     0 offset           0 length                  96 to matrix element file.
 Write PRIMITIVE EXPONENTS                 from file     0 offset           0 length                 180 to matrix element file.
 Write CONTRACTION COEFFICIENTS            from file     0 offset           0 length                 180 to matrix element file.
 Write P(S=P) CONTRACTION COEFFICIENTS     from file     0 offset           0 length                 180 to matrix element file.
 Write COORDINATES OF EACH SHELL           from file     0 offset           0 length                 288 to matrix element file.
 Write BONDS PER ATOM                      from file     0 offset           0 length                  22 to matrix element file.
 Write BONDED ATOMS                        from file     0 offset           0 length                  40 to matrix element file.
 Write BOND TYPES                          from file     0 offset           0 length                  40 to matrix element file.
 Write GAUSSIAN SCALARS                    from file   501 offset           0 to matrix element file.
 Write INTEGER ISO                         from file     0 offset           0 length                  22 to matrix element file.
 Write INTEGER SPIN                        from file     0 offset           0 length                  22 to matrix element file.
 Write REAL ZEFFECTIVE                     from file     0 offset           0 length                  22 to matrix element file.
 Write REAL GFACTOR                        from file     0 offset           0 length                  22 to matrix element file.
 Write REAL ZNUCLEAR                       from file     0 offset           0 length                  22 to matrix element file.
 Write MULLIKEN CHARGES                    from file     0 offset           0 length                  22 to matrix element file.
 Write NUCLEAR GRADIENT                    from file 10584 offset           0 length                  66 to matrix element file.
 Array NUCLEAR FORCE CONSTANTS              on  file 10585 does not exist.
 Write ELECTRIC DIPOLE MOMENT              from file     0 offset           0 length                   3 to matrix element file.
 Write NON-ADIABATIC COUPLING              from file 10810 offset           0 length                  66 to matrix element file.
 Write OVERLAP                             from file 10514 offset           0 length               20100 to matrix element file.
 Write CORE HAMILTONIAN ALPHA              from file 10515 offset           0 length               20100 to matrix element file.
 Write CORE HAMILTONIAN BETA               from file 10515 offset       20100 length               20100 to matrix element file.
 Write KINETIC ENERGY                      from file 10516 offset           0 length               20100 to matrix element file.
 Write ORTHOGONAL BASIS                    from file 10685 offset           0 length               40000 to matrix element file.
 Write DIPOLE INTEGRALS                    from file 10518 offset           0 length               60300 to matrix element file.
 Array DIP VEL INTEGRALS                    on  file 10572 does not exist.
 Array R X DEL INTEGRALS                    on  file 10572 does not exist.
 Write ALPHA ORBITAL ENERGIES              from file     0 offset           0 length                 200 to matrix element file.
 Write ALPHA MO COEFFICIENTS               from file 10524 offset           0 length               40000 to matrix element file.
 Write ALPHA DENSITY MATRIX                from file     0 offset           0 length               20100 to matrix element file.
 Write ALPHA SCF DENSITY MATRIX            from file 10528 offset           0 length               20100 to matrix element file.
 Write ALPHA FOCK MATRIX                   from file 10536 offset           0 length               20100 to matrix element file.
 Write ALPHA SCF DENSITY                   from file     0 offset           0 length               20100 to matrix element file.
 No 2e integrals to process.
 Perform NBO analysis...

 *********************************** NBO 7.0 ***********************************

   Unrecognized $NBO keyword: BDIDX

 *********************************** NBO 7.0 ***********************************
             N A T U R A L   A T O M I C   O R B I T A L   A N D
          N A T U R A L   B O N D   O R B I T A L   A N A L Y S I S
 ***************************** Yang Wang (I101673) *****************************
  (c) Copyright 1996-2019 Board of Regents of the University of Wisconsin System
      on behalf of the Theoretical Chemistry Institute.  All rights reserved.

          Cite this program [NBO 7.0.4 (28-Mar-2019)] as:

          NBO 7.0.  E. D. Glendening, J. K. Badenhoop, A. E. Reed,
          J. E. Carpenter, J. A. Bohmann, C. M. Morales, P. Karafiloglou,
          C. R. Landis, and F. Weinhold, Theoretical Chemistry Institute,
          University of Wisconsin, Madison, WI (2018)

       /NOBOND / : No two-center NBO search
       /MCB    / : Search for 1-center NBOs
       /AONAO  / : Write the AO to NAO transformation to lfn33

 Filename set to /tmp/irc_step_000-13723.tmp/Gau-209302

 Job title:  IRC step 0 (TS)


 NATURAL POPULATIONS:  Natural atomic orbital occupancies

  NAO Atom No lang   Type(AO)    Occupancy      Energy
 -------------------------------------------------------
   1    C  1  s      Cor( 1s)     1.99995     -10.57148
   2    C  1  s      Val( 2s)     1.06983      -0.18925
   3    C  1  s      Ryd( 3s)     0.00314       0.90121
   4    C  1  px     Val( 2p)     1.24796      -0.10261
   5    C  1  px     Ryd( 3p)     0.00262       0.88681
   6    C  1  py     Val( 2p)     1.09878      -0.11788
   7    C  1  py     Ryd( 3p)     0.00447       0.68781
   8    C  1  pz     Val( 2p)     1.13718      -0.08308
   9    C  1  pz     Ryd( 3p)     0.00320       0.61632
  10    C  1  dxy    Ryd( 3d)     0.00048       2.16327
  11    C  1  dxz    Ryd( 3d)     0.00050       2.40915
  12    C  1  dyz    Ryd( 3d)     0.00067       2.04445
  13    C  1  dx2y2  Ryd( 3d)     0.00043       2.17428
  14    C  1  dz2    Ryd( 3d)     0.00094       2.40048

  15    C  2  s      Cor( 1s)     1.99996     -10.63676
  16    C  2  s      Val( 2s)     0.92529      -0.14044
  17    C  2  s      Ryd( 3s)     0.00259       0.81130
  18    C  2  px     Val( 2p)     0.83063      -0.02015
  19    C  2  px     Ryd( 3p)     0.00690       0.80440
  20    C  2  py     Val( 2p)     0.90955      -0.11510
  21    C  2  py     Ryd( 3p)     0.00388       0.70806
  22    C  2  pz     Val( 2p)     1.08106      -0.05016
  23    C  2  pz     Ryd( 3p)     0.00862       0.73967
  24    C  2  dxy    Ryd( 3d)     0.00171       2.02465
  25    C  2  dxz    Ryd( 3d)     0.00179       2.47837
  26    C  2  dyz    Ryd( 3d)     0.00099       2.05248
  27    C  2  dx2y2  Ryd( 3d)     0.00122       2.15855
  28    C  2  dz2    Ryd( 3d)     0.00131       2.39062

  29    H  3  s      Val( 1s)     0.75188       0.09709
  30    H  3  s      Ryd( 2s)     0.00119       0.41690
  31    H  3  px     Ryd( 2p)     0.00060       2.19360
  32    H  3  py     Ryd( 2p)     0.00013       1.80333
  33    H  3  pz     Ryd( 2p)     0.00043       2.04870

  34    H  4  s      Val( 1s)     0.74629       0.10766
  35    H  4  s      Ryd( 2s)     0.00108       0.36400
  36    H  4  px     Ryd( 2p)     0.00077       2.26347
  37    H  4  py     Ryd( 2p)     0.00023       1.87936
  38    H  4  pz     Ryd( 2p)     0.00012       1.88764

  39    H  5  s      Val( 1s)     0.75680       0.11663
  40    H  5  s      Ryd( 2s)     0.00412       0.39034
  41    H  5  px     Ryd( 2p)     0.00066       2.14126
  42    H  5  py     Ryd( 2p)     0.00021       1.81085
  43    H  5  pz     Ryd( 2p)     0.00060       2.12555

  44    C  6  s      Cor( 1s)     1.99995     -10.58229
  45    C  6  s      Val( 2s)     1.06516      -0.18149
  46    C  6  s      Ryd( 3s)     0.00234       0.93581
  47    C  6  px     Val( 2p)     1.18396      -0.08754
  48    C  6  px     Ryd( 3p)     0.00271       0.71911
  49    C  6  py     Val( 2p)     0.96605      -0.08755
  50    C  6  py     Ryd( 3p)     0.00321       0.64973
  51    C  6  pz     Val( 2p)     1.15652      -0.08266
  52    C  6  pz     Ryd( 3p)     0.00475       0.84610
  53    C  6  dxy    Ryd( 3d)     0.00034       2.15728
  54    C  6  dxz    Ryd( 3d)     0.00051       2.26100
  55    C  6  dyz    Ryd( 3d)     0.00042       2.16706
  56    C  6  dx2y2  Ryd( 3d)     0.00096       2.28456
  57    C  6  dz2    Ryd( 3d)     0.00081       2.41484

  58    C  7  s      Cor( 1s)     1.99996     -10.55037
  59    C  7  s      Val( 2s)     0.93919      -0.08122
  60    C  7  s      Ryd( 3s)     0.00178       0.66393
  61    C  7  px     Val( 2p)     1.16180      -0.07509
  62    C  7  px     Ryd( 3p)     0.00431       0.90438
  63    C  7  py     Val( 2p)     1.09515      -0.08363
  64    C  7  py     Ryd( 3p)     0.00504       0.73290
  65    C  7  pz     Val( 2p)     1.08979      -0.02872
  66    C  7  pz     Ryd( 3p)     0.00375       0.70071
  67    C  7  dxy    Ryd( 3d)     0.00055       2.26539
  68    C  7  dxz    Ryd( 3d)     0.00061       2.27329
  69    C  7  dyz    Ryd( 3d)     0.00067       2.20092
  70    C  7  dx2y2  Ryd( 3d)     0.00053       2.06310
  71    C  7  dz2    Ryd( 3d)     0.00081       2.38589

  72    C  8  s      Cor( 1s)     1.99996     -10.56116
  73    C  8  s      Val( 2s)     0.93974      -0.07287
  74    C  8  s      Ryd( 3s)     0.00215       0.65797
  75    C  8  px     Val( 2p)     1.08425      -0.06725
  76    C  8  px     Ryd( 3p)     0.00398       0.79936
  77    C  8  py     Val( 2p)     1.04776      -0.08404
  78    C  8  py     Ryd( 3p)     0.00360       0.74632
  79    C  8  pz     Val( 2p)     1.11955      -0.03166
  80    C  8  pz     Ryd( 3p)     0.00494       0.84266
  81    C  8  dxy    Ryd( 3d)     0.00064       2.29536
  82    C  8  dxz    Ryd( 3d)     0.00082       2.37276
  83    C  8  dyz    Ryd( 3d)     0.00070       2.20914
  84    C  8  dx2y2  Ryd( 3d)     0.00053       1.99190
  85    C  8  dz2    Ryd( 3d)     0.00072       2.37207

  86    C  9  s      Cor( 1s)     1.99995     -10.54902
  87    C  9  s      Val( 2s)     0.98996      -0.11357
  88    C  9  s      Ryd( 3s)     0.00358       0.84460
  89    C  9  px     Val( 2p)     1.15770      -0.06964
  90    C  9  px     Ryd( 3p)     0.00425       0.87966
  91    C  9  py     Val( 2p)     1.09913      -0.09094
  92    C  9  py     Ryd( 3p)     0.00607       0.79036
  93    C  9  pz     Val( 2p)     1.11893      -0.05926
  94    C  9  pz     Ryd( 3p)     0.00478       0.91080
  95    C  9  dxy    Ryd( 3d)     0.00060       2.32769
  96    C  9  dxz    Ryd( 3d)     0.00050       2.35056
  97    C  9  dyz    Ryd( 3d)     0.00030       2.13801
  98    C  9  dx2y2  Ryd( 3d)     0.00063       2.07376
  99    C  9  dz2    Ryd( 3d)     0.00085       2.38899

 100    H 10  s      Val( 1s)     0.76426       0.10147
 101    H 10  s      Ryd( 2s)     0.00188       0.41997
 102    H 10  px     Ryd( 2p)     0.00108       2.37171
 103    H 10  py     Ryd( 2p)     0.00009       1.77774
 104    H 10  pz     Ryd( 2p)     0.00007       1.85451

 105    H 11  s      Val( 1s)     0.76440       0.10621
 106    H 11  s      Ryd( 2s)     0.00122       0.35495
 107    H 11  px     Ryd( 2p)     0.00012       1.88772
 108    H 11  py     Ryd( 2p)     0.00006       1.78172
 109    H 11  pz     Ryd( 2p)     0.00099       2.33328

 110    H 12  s      Val( 1s)     0.77074       0.11532
 111    H 12  s      Ryd( 2s)     0.00151       0.37024
 112    H 12  px     Ryd( 2p)     0.00070       2.21682
 113    H 12  py     Ryd( 2p)     0.00028       1.92065
 114    H 12  pz     Ryd( 2p)     0.00016       1.98827

 115    H 13  s      Val( 1s)     0.76854       0.11234
 116    H 13  s      Ryd( 2s)     0.00239       0.37428
 117    H 13  px     Ryd( 2p)     0.00042       2.04086
 118    H 13  py     Ryd( 2p)     0.00035       1.94815
 119    H 13  pz     Ryd( 2p)     0.00038       2.12064

 120    H 14  s      Val( 1s)     0.76347       0.11797
 121    H 14  s      Ryd( 2s)     0.00360       0.43867
 122    H 14  px     Ryd( 2p)     0.00068       2.16983
 123    H 14  py     Ryd( 2p)     0.00022       1.86038
 124    H 14  pz     Ryd( 2p)     0.00026       2.07729

 125    O 15  s      Cor( 1s)     1.99997     -19.67562
 126    O 15  s      Val( 2s)     1.56570      -0.77247
 127    O 15  s      Ryd( 3s)     0.00057       1.62662
 128    O 15  px     Val( 2p)     1.40302      -0.34422
 129    O 15  px     Ryd( 3p)     0.00065       1.52347
 130    O 15  py     Val( 2p)     1.81339      -0.39185
 131    O 15  py     Ryd( 3p)     0.00264       1.21216
 132    O 15  pz     Val( 2p)     1.76312      -0.40478
 133    O 15  pz     Ryd( 3p)     0.00250       1.27676
 134    O 15  dxy    Ryd( 3d)     0.00037       2.84398
 135    O 15  dxz    Ryd( 3d)     0.00202       3.20741
 136    O 15  dyz    Ryd( 3d)     0.00121       2.73996
 137    O 15  dx2y2  Ryd( 3d)     0.00078       3.08804
 138    O 15  dz2    Ryd( 3d)     0.00136       2.83007

 139    C 16  s      Cor( 1s)     1.99996     -10.62061
 140    C 16  s      Val( 2s)     0.90091      -0.09713
 141    C 16  s      Ryd( 3s)     0.00770       0.58422
 142    C 16  px     Val( 2p)     0.84263      -0.02840
 143    C 16  px     Ryd( 3p)     0.00757       0.70765
 144    C 16  py     Val( 2p)     0.82321      -0.03519
 145    C 16  py     Ryd( 3p)     0.00671       0.69391
 146    C 16  pz     Val( 2p)     0.98701       0.00336
 147    C 16  pz     Ryd( 3p)     0.00613       0.63839
 148    C 16  dxy    Ryd( 3d)     0.00146       2.31317
 149    C 16  dxz    Ryd( 3d)     0.00176       2.29237
 150    C 16  dyz    Ryd( 3d)     0.00176       2.22761
 151    C 16  dx2y2  Ryd( 3d)     0.00215       2.02140
 152    C 16  dz2    Ryd( 3d)     0.00271       2.36584

 153    H 17  s      Val( 1s)     0.86999       0.05567
 154    H 17  s      Ryd( 2s)     0.00383       0.40009
 155    H 17  px     Ryd( 2p)     0.00046       2.01669
 156    H 17  py     Ryd( 2p)     0.00033       1.93853
 157    H 17  pz     Ryd( 2p)     0.00042       1.99885

 158    O 18  s      Cor( 1s)     1.99997     -19.60571
 159    O 18  s      Val( 2s)     1.69202      -0.72495
 160    O 18  s      Ryd( 3s)     0.00140       1.55657
 161    O 18  px     Val( 2p)     1.53451      -0.29342
 162    O 18  px     Ryd( 3p)     0.00094       1.15260
 163    O 18  py     Val( 2p)     1.50012      -0.28862
 164    O 18  py     Ryd( 3p)     0.00084       1.16157
 165    O 18  pz     Val( 2p)     1.83138      -0.32400
 166    O 18  pz     Ryd( 3p)     0.00304       1.23808
 167    O 18  dxy    Ryd( 3d)     0.00191       3.10418
 168    O 18  dxz    Ryd( 3d)     0.00162       2.98801
 169    O 18  dyz    Ryd( 3d)     0.00154       2.98079
 170    O 18  dx2y2  Ryd( 3d)     0.00196       2.87875
 171    O 18  dz2    Ryd( 3d)     0.00125       2.88493

 172    C 19  s      Cor( 1s)     1.99995     -10.61813
 173    C 19  s      Val( 2s)     1.08341      -0.21814
 174    C 19  s      Ryd( 3s)     0.00166       0.80135
 175    C 19  px     Val( 2p)     0.88638      -0.07026
 176    C 19  px     Ryd( 3p)     0.00315       0.65471
 177    C 19  py     Val( 2p)     1.20767      -0.11174
 178    C 19  py     Ryd( 3p)     0.00062       0.60520
 179    C 19  pz     Val( 2p)     1.06076      -0.08779
 180    C 19  pz     Ryd( 3p)     0.00346       0.61306
 181    C 19  dxy    Ryd( 3d)     0.00083       2.08487
 182    C 19  dxz    Ryd( 3d)     0.00170       2.39221
 183    C 19  dyz    Ryd( 3d)     0.00118       2.40216
 184    C 19  dx2y2  Ryd( 3d)     0.00136       2.35035
 185    C 19  dz2    Ryd( 3d)     0.00058       2.12300

 186    H 20  s      Val( 1s)     0.78314       0.08773
 187    H 20  s      Ryd( 2s)     0.00063       0.33316
 188    H 20  px     Ryd( 2p)     0.00061       2.12305
 189    H 20  py     Ryd( 2p)     0.00013       1.80796
 190    H 20  pz     Ryd( 2p)     0.00041       1.95917

 191    H 21  s      Val( 1s)     0.80381       0.06801
 192    H 21  s      Ryd( 2s)     0.00192       0.45610
 193    H 21  px     Ryd( 2p)     0.00008       1.76098
 194    H 21  py     Ryd( 2p)     0.00060       2.07900
 195    H 21  pz     Ryd( 2p)     0.00052       2.10589

 196    H 22  s      Val( 1s)     0.80880       0.06130
 197    H 22  s      Ryd( 2s)     0.00219       0.37944
 198    H 22  px     Ryd( 2p)     0.00006       1.79317
 199    H 22  py     Ryd( 2p)     0.00085       2.25225
 200    H 22  pz     Ryd( 2p)     0.00022       1.88660


 Summary of Natural Population Analysis:

                                     Natural Population
             Natural    ---------------------------------------------
  Atom No    Charge        Core      Valence    Rydberg      Total
 --------------------------------------------------------------------
    C  1   -0.57014      1.99995     4.55374    0.01645     6.57014
    C  2    0.22452      1.99996     3.74653    0.02900     5.77548
    H  3    0.24577      0.00000     0.75188    0.00234     0.75423
    H  4    0.25150      0.00000     0.74629    0.00220     0.74850
    H  5    0.23761      0.00000     0.75680    0.00559     0.76239
    C  6   -0.38770      1.99995     4.37169    0.01606     6.38770
    C  7   -0.30393      1.99996     4.28592    0.01805     6.30393
    C  8   -0.20935      1.99996     4.19130    0.01809     6.20935
    C  9   -0.38723      1.99995     4.36572    0.02156     6.38723
    H 10    0.23262      0.00000     0.76426    0.00313     0.76738
    H 11    0.23321      0.00000     0.76440    0.00239     0.76679
    H 12    0.22661      0.00000     0.77074    0.00265     0.77339
    H 13    0.22793      0.00000     0.76854    0.00353     0.77207
    H 14    0.23177      0.00000     0.76347    0.00476     0.76823
    O 15   -0.55728      1.99997     6.54523    0.01209     8.55728
    C 16    0.40833      1.99996     3.55376    0.03795     5.59167
    H 17    0.12496      0.00000     0.86999    0.00505     0.87504
    O 18   -0.57250      1.99997     6.55803    0.01450     8.57250
    C 19   -0.25271      1.99995     4.23823    0.01453     6.25271
    H 20    0.21508      0.00000     0.78314    0.00178     0.78492
    H 21    0.19307      0.00000     0.80381    0.00312     0.80693
    H 22    0.18787      0.00000     0.80880    0.00332     0.81213
 ====================================================================
 * Total *  0.00000     19.99956    55.76229    0.23815    76.00000

                                 Natural Population
 ---------------------------------------------------------
   Core                      19.99956 ( 99.9978% of   20)
   Valence                   55.76229 ( 99.5755% of   56)
   Natural Minimal Basis     75.76185 ( 99.6866% of   76)
   Natural Rydberg Basis      0.23815 (  0.3134% of   76)
 ---------------------------------------------------------

    Atom No         Natural Electron Configuration
 ----------------------------------------------------------------------------
      C  1      [core]2s( 1.07)2p( 3.48)3p( 0.01)
      C  2      [core]2s( 0.93)2p( 2.82)3p( 0.02)3d( 0.01)
      H  3            1s( 0.75)
      H  4            1s( 0.75)
      H  5            1s( 0.76)
      C  6      [core]2s( 1.07)2p( 3.31)3p( 0.01)
      C  7      [core]2s( 0.94)2p( 3.35)3p( 0.01)
      C  8      [core]2s( 0.94)2p( 3.25)3p( 0.01)
      C  9      [core]2s( 0.99)2p( 3.38)3p( 0.02)
      H 10            1s( 0.76)
      H 11            1s( 0.76)
      H 12            1s( 0.77)
      H 13            1s( 0.77)
      H 14            1s( 0.76)
      O 15      [core]2s( 1.57)2p( 4.98)3p( 0.01)3d( 0.01)
      C 16      [core]2s( 0.90)2p( 2.65)3s( 0.01)3p( 0.02)3d( 0.01)
      H 17            1s( 0.87)
      O 18      [core]2s( 1.69)2p( 4.87)3d( 0.01)
      C 19      [core]2s( 1.08)2p( 3.15)3p( 0.01)3d( 0.01)
      H 20            1s( 0.78)
      H 21            1s( 0.80)
      H 22            1s( 0.81)


 NATURAL BOND ORBITAL ANALYSIS:

                            Occupancies       Lewis Structure    Low   High
         Max    Occ     -------------------  -----------------   occ   occ
  Cycle  Ctr   Thresh    Lewis   non-Lewis     CR  BD  nC  LP    (L)   (NL)
 ============================================================================
    1     1     1.00    56.33447  19.66553     10   0   0  28     2     24
 ----------------------------------------------------------------------------

 Structure accepted: Search for bonds prevented by NOBOND keyword

 -------------------------------------------------------
   Core                     19.99956 ( 99.998% of  20)
   Valence Lewis            36.33490 ( 64.884% of  56)
  ==================      =============================
   Total Lewis              56.33447 ( 74.124% of  76)
  -----------------------------------------------------
   Valence non-Lewis        19.52514 ( 25.691% of  76)
   Rydberg non-Lewis         0.14040 (  0.185% of  76)
  ==================      =============================
   Total non-Lewis          19.66553 ( 25.876% of  76)
 -------------------------------------------------------


     (Occupancy)   Bond orbital / Coefficients / Hybrids
 ------------------ Lewis ------------------------------------------------------
   1. (1.99995) CR ( 1) C  1            s(100.00%)
                                         1.0000  0.0000  0.0000  0.0000  0.0000
                                         0.0000  0.0000  0.0000  0.0000  0.0000
                                         0.0000  0.0000  0.0000  0.0000
   2. (1.99996) CR ( 1) C  2            s(100.00%)
                                         1.0000  0.0000  0.0000  0.0000  0.0000
                                         0.0000  0.0000  0.0000  0.0000  0.0000
                                         0.0000  0.0000  0.0000  0.0000
   3. (1.99995) CR ( 1) C  6            s(100.00%)
                                         1.0000  0.0000  0.0000  0.0000  0.0000
                                         0.0000  0.0000  0.0000  0.0000  0.0000
                                         0.0000  0.0000  0.0000  0.0000
   4. (1.99996) CR ( 1) C  7            s(100.00%)
                                         1.0000  0.0000  0.0000  0.0000  0.0000
                                         0.0000  0.0000  0.0000  0.0000  0.0000
                                         0.0000  0.0000  0.0000  0.0000
   5. (1.99996) CR ( 1) C  8            s(100.00%)
                                         1.0000  0.0000  0.0000  0.0000  0.0000
                                         0.0000  0.0000  0.0000  0.0000  0.0000
                                         0.0000  0.0000  0.0000  0.0000
   6. (1.99995) CR ( 1) C  9            s(100.00%)
                                         1.0000  0.0000  0.0000  0.0000  0.0000
                                         0.0000  0.0000  0.0000  0.0000  0.0000
                                         0.0000  0.0000  0.0000  0.0000
   7. (1.99997) CR ( 1) O 15            s(100.00%)
                                         1.0000  0.0000  0.0000  0.0000  0.0000
                                         0.0000  0.0000  0.0000  0.0000  0.0000
                                         0.0000  0.0000  0.0000  0.0000
   8. (1.99996) CR ( 1) C 16            s(100.00%)
                                         1.0000  0.0000  0.0000  0.0000  0.0000
                                         0.0000  0.0000  0.0000  0.0000  0.0000
                                         0.0000  0.0000  0.0000  0.0000
   9. (1.99997) CR ( 1) O 18            s(100.00%)
                                         1.0000  0.0000  0.0000  0.0000  0.0000
                                         0.0000  0.0000  0.0000  0.0000  0.0000
                                         0.0000  0.0000  0.0000  0.0000
  10. (1.99995) CR ( 1) C 19            s(100.00%)
                                         1.0000  0.0000  0.0000  0.0000  0.0000
                                         0.0000  0.0000  0.0000  0.0000  0.0000
                                         0.0000  0.0000  0.0000  0.0000
  11. (1.25334) LP ( 1) C  1            s(  1.09%)p90.79( 98.86%)d 0.05(  0.05%)
                                         0.0000  0.1043  0.0014 -0.9863  0.0065
                                         0.1217  0.0033  0.0309  0.0009 -0.0176
                                         0.0115 -0.0005  0.0008 -0.0074
  12. (1.22581) LP ( 2) C  1            s( 31.51%)p 2.17( 68.44%)d 0.00(  0.06%)
                                         0.0000  0.5612 -0.0129  0.0676 -0.0041
                                         0.2649  0.0247 -0.7797 -0.0319 -0.0016
                                        -0.0109 -0.0038  0.0147 -0.0142
  13. (1.08991) LP ( 3) C  1            s(  1.89%)p51.86( 98.08%)d 0.01(  0.03%)
                                         0.0000  0.1324 -0.0372 -0.1110  0.0041
                                        -0.9543  0.0425 -0.2367  0.0037 -0.0006
                                        -0.0048 -0.0143 -0.0067 -0.0022
  14. (0.99448) LP ( 4) C  1            s( 65.50%)p 0.53( 34.44%)d 0.00(  0.07%)
                                         0.0000  0.8091  0.0174  0.0986 -0.0019
                                        -0.0415  0.0253  0.5758  0.0284 -0.0021
                                         0.0055 -0.0034  0.0063  0.0238
  15. (1.24660) LP ( 1) C  2            s( 18.97%)p 4.27( 81.00%)d 0.00(  0.03%)
                                         0.0000  0.4353 -0.0160 -0.5238  0.0301
                                         0.2165  0.0090  0.6984  0.0045 -0.0062
                                        -0.0133  0.0074  0.0025  0.0009
  16. (1.23822) LP ( 1) C  6            s(  8.80%)p10.36( 91.15%)d 0.01(  0.05%)
                                         0.0000  0.2967  0.0024  0.4188 -0.0107
                                         0.1983  0.0027 -0.8347  0.0005  0.0033
                                        -0.0095  0.0004 -0.0028  0.0201
  17. (1.23066) LP ( 2) C  6            s( 24.98%)p 3.00( 74.98%)d 0.00(  0.05%)
                                         0.0000  0.4996 -0.0122 -0.8091 -0.0182
                                         0.2572  0.0001 -0.1671 -0.0266  0.0019
                                        -0.0120  0.0035  0.0165 -0.0053
  18. (0.98639) LP ( 3) C  6            s( 62.68%)p 0.59( 37.26%)d 0.00(  0.05%)
                                         0.0000  0.7916  0.0150  0.2850  0.0149
                                        -0.4316 -0.0369  0.3214 -0.0166 -0.0151
                                         0.0081 -0.0158 -0.0013  0.0005
  19. (1.23499) LP ( 1) C  7            s( 12.34%)p 7.10( 87.63%)d 0.00(  0.03%)
                                         0.0000  0.3507 -0.0183  0.7564 -0.0057
                                        -0.4438 -0.0040 -0.3272  0.0015 -0.0071
                                        -0.0089  0.0051  0.0109 -0.0077
  20. (1.09628) LP ( 2) C  7            s(  0.46%)p99.99( 99.50%)d 0.08(  0.04%)
                                         0.0000  0.0661  0.0166 -0.5875  0.0114
                                        -0.4659  0.0339 -0.6568 -0.0121 -0.0026
                                         0.0048 -0.0134  0.0107 -0.0056
  21. (1.06375) LP ( 3) C  7            s(  0.06%)p99.99( 99.88%)d 1.08(  0.06%)
                                         0.0000  0.0228  0.0077 -0.1550  0.0146
                                        -0.7330 -0.0049  0.6602  0.0379  0.0100
                                        -0.0128  0.0040  0.0105  0.0155
  22. (1.23878) LP ( 1) C  8            s( 11.36%)p 7.80( 88.61%)d 0.00(  0.03%)
                                         0.0000  0.3367 -0.0157  0.5604 -0.0016
                                        -0.5402  0.0003  0.5293 -0.0099 -0.0063
                                         0.0145 -0.0094  0.0029  0.0001
  23. (1.08581) LP ( 2) C  8            s(  0.03%)p99.99( 99.91%)d 2.28(  0.06%)
                                         0.0000  0.0158  0.0037  0.5194  0.0215
                                        -0.2505 -0.0137 -0.8159 -0.0173  0.0124
                                         0.0014 -0.0090 -0.0022  0.0190
  24. (1.24304) LP ( 1) C  9            s( 12.85%)p 6.78( 87.12%)d 0.00(  0.03%)
                                         0.0000  0.3579 -0.0197 -0.7407 -0.0158
                                         0.4069 -0.0032 -0.3957  0.0116 -0.0056
                                         0.0129 -0.0072  0.0053 -0.0009
  25. (1.09895) LP ( 2) C  9            s(  3.26%)p29.62( 96.67%)d 0.02(  0.06%)
                                         0.0000  0.1807 -0.0017 -0.1770 -0.0211
                                         0.3811  0.0138  0.8882  0.0228  0.0095
                                         0.0049 -0.0029  0.0009  0.0226
  26. (1.08268) LP ( 3) C  9            s(  0.22%)p99.99( 99.75%)d 0.14(  0.03%)
                                         0.0000  0.0345 -0.0315  0.5720 -0.0144
                                         0.7848 -0.0363 -0.2297  0.0080  0.0030
                                         0.0018  0.0019  0.0159 -0.0061
  27. (1.96247) LP ( 1) O 15            s( 32.45%)p 2.08( 67.49%)d 0.00(  0.05%)
                                         0.0000  0.5697 -0.0032  0.1151  0.0004
                                        -0.0301  0.0003  0.8129 -0.0046  0.0003
                                        -0.0064  0.0032  0.0011 -0.0218
  28. (1.82035) LP ( 2) O 15            s(  0.23%)p99.99( 99.70%)d 0.29(  0.07%)
                                         0.0000  0.0484 -0.0014 -0.0931  0.0017
                                        -0.9925  0.0035 -0.0575  0.0013  0.0063
                                         0.0025  0.0244  0.0049  0.0030
  29. (1.39431) LP ( 3) O 15            s(  1.20%)p82.24( 98.66%)d 0.12(  0.14%)
                                         0.0000  0.1095  0.0011 -0.9864 -0.0174
                                         0.0939  0.0027  0.0665 -0.0060 -0.0055
                                         0.0357 -0.0030  0.0063 -0.0079
  30. (1.37395) LP ( 4) O 15            s( 66.07%)p 0.51( 33.87%)d 0.00(  0.06%)
                                         0.0000  0.8129  0.0031  0.0578  0.0034
                                         0.0676 -0.0006 -0.5750  0.0127 -0.0040
                                        -0.0030 -0.0048  0.0196  0.0118
  31. (1.17905) LP ( 1) C 16            s( 28.51%)p 2.51( 71.46%)d 0.00(  0.03%)
                                         0.0000  0.5332 -0.0282  0.5206 -0.0166
                                        -0.4575  0.0163  0.4833  0.0107 -0.0079
                                         0.0110 -0.0090  0.0022 -0.0003
  32. (1.98249) LP ( 1) O 18            s( 55.39%)p 0.80( 44.57%)d 0.00(  0.04%)
                                         0.0000  0.7441 -0.0143 -0.4131 -0.0013
                                         0.4054  0.0009  0.3327  0.0011  0.0138
                                         0.0095 -0.0097 -0.0006  0.0009
  33. (1.89380) LP ( 2) O 18            s(  0.03%)p99.99( 99.86%)d 3.37(  0.11%)
                                         0.0000  0.0166 -0.0065 -0.3807  0.0038
                                         0.2987 -0.0042 -0.8742  0.0126  0.0138
                                        -0.0118  0.0125 -0.0020  0.0242
  34. (1.35952) LP ( 3) O 18            s(  0.03%)p99.99( 99.78%)d 5.92(  0.19%)
                                         0.0000  0.0178 -0.0003  0.6921  0.0023
                                         0.7182  0.0010 -0.0557  0.0002  0.0012
                                        -0.0162 -0.0135  0.0378  0.0012
  35. (1.33260) LP ( 4) O 18            s( 44.58%)p 1.24( 55.21%)d 0.00(  0.21%)
                                         0.0000  0.6672  0.0240  0.4506  0.0130
                                        -0.4777 -0.0136 -0.3470 -0.0082 -0.0295
                                        -0.0245  0.0243 -0.0005 -0.0088
  36. (1.22965) LP ( 1) C 19            s(  0.18%)p99.99( 99.76%)d 0.35(  0.06%)
                                         0.0000  0.0360 -0.0216 -0.5510  0.0307
                                         0.1394 -0.0054 -0.8207  0.0097  0.0078
                                        -0.0142  0.0092 -0.0159 -0.0040
  37. (1.20809) LP ( 2) C 19            s(  0.02%)p99.99( 99.92%)d 2.84(  0.06%)
                                         0.0000  0.0148  0.0002  0.0926  0.0000
[...]
          -------------------------------
               Total unit 10    0.76738  (100.0000%)
              Charge unit 10    0.23262

 Molecular unit 11  (H)
 ------ Lewis --------------------------------------
 ------ non-Lewis ----------------------------------
   51. LV ( 1) H 11             0.76546     0.11631
  133. RY ( 1) H 11             0.00122     0.37575
  134. RY ( 2) H 11             0.00006     1.83414
  135. RY ( 3) H 11             0.00003     2.04132
  136. RY ( 4) H 11             0.00002     2.09637
          -------------------------------
                 Total Lewis    0.00000  (  0.0000%)
           Valence non-Lewis    0.76546  ( 99.8265%)
           Rydberg non-Lewis    0.00133  (  0.1735%)
          -------------------------------
               Total unit 11    0.76679  (100.0000%)
              Charge unit 11    0.23321

 Molecular unit 12  (H)
 ------ Lewis --------------------------------------
 ------ non-Lewis ----------------------------------
   52. LV ( 1) H 12             0.77169     0.12540
  137. RY ( 1) H 12             0.00152     0.40344
  138. RY ( 2) H 12             0.00013     1.76064
  139. RY ( 3) H 12             0.00003     2.36340
  140. RY ( 4) H 12             0.00002     1.95842
          -------------------------------
                 Total Lewis    0.00000  (  0.0000%)
           Valence non-Lewis    0.77169  ( 99.7800%)
           Rydberg non-Lewis    0.00170  (  0.2200%)
          -------------------------------
               Total unit 12    0.77339  (100.0000%)
              Charge unit 12    0.22661

 Molecular unit 13  (H)
 ------ Lewis --------------------------------------
 ------ non-Lewis ----------------------------------
   53. LV ( 1) H 13             0.76954     0.12243
  141. RY ( 1) H 13             0.00240     0.39671
  142. RY ( 2) H 13             0.00009     1.75377
  143. RY ( 3) H 13             0.00004     2.35884
  144. RY ( 4) H 13             0.00001     1.96451
          -------------------------------
                 Total Lewis    0.00000  (  0.0000%)
           Valence non-Lewis    0.76954  ( 99.6715%)
           Rydberg non-Lewis    0.00254  (  0.3285%)
          -------------------------------
               Total unit 13    0.77207  (100.0000%)
              Charge unit 13    0.22793

 Molecular unit 14  (H)
 ------ Lewis --------------------------------------
 ------ non-Lewis ----------------------------------
   54. LV ( 1) H 14             0.76448     0.12776
  145. RY ( 1) H 14             0.00361     0.44282
  146. RY ( 2) H 14             0.00007     1.74152
  147. RY ( 3) H 14             0.00005     2.16095
  148. RY ( 4) H 14             0.00003     2.19108
          -------------------------------
                 Total Lewis    0.00000  (  0.0000%)
           Valence non-Lewis    0.76448  ( 99.5119%)
           Rydberg non-Lewis    0.00375  (  0.4881%)
          -------------------------------
               Total unit 14    0.76823  (100.0000%)
              Charge unit 14    0.23177

 Molecular unit 15  (O)
 ------ Lewis --------------------------------------
    7. CR ( 1) O 15             1.99997   -19.67562
   27. LP ( 1) O 15             1.96247    -0.54956  59(r),39(r),41(r),72(r)
                                                     180(r),73(r),44(r),181(r)
                                                     61(r),60(r),42(r),76(r)
                                                     183(r),184(r),78(r),182(r)
                                                     189(r),56(r),62(r),77(r)
                                                     91(r),47(r),40(r),89(r)
   28. LP ( 2) O 15             1.82035    -0.39393  40(r),74(r),62(r),182(r)
                                                     47(r),61(r),75(r),39(r)
                                                     59(r),44(r),181(r),180(r)
                                                     188(r),197(r),103(r),200(r)
                                                     196(r)
   29. LP ( 3) O 15             1.39431    -0.34186  41(r),59(r),40(r),154(g)
                                                     72(r),181(r),61(r),44(r)
                                                     62(r),77(r),78(r),184(r)
                                                     187(r),79(r),185(r),60(r)
                                                     76(r),42(r),39(r),183(r)
                                                     73(r),180(r),63(r),186(r)
                                                     43(r),65(r),80(r),122(r)
                                                     45(r),74(r),75(r),195(r)
                                                     112(r),69(r),192(r),199(r)
                                                     68(r),92(r)
   30. LP ( 4) O 15             1.37395    -0.62572  59(r),41(r),151(g),44(r)
                                                     180(r),187(r),185(r),153(g)
                                                     77(r),181(r),76(r),150(g)
                                                     61(r),60(r),155(g),62(r)
                                                     79(r),63(r),42(r),73(r)
                                                     39(r),184(r),80(r),65(r)
                                                     113(r),68(r),186(r),112(r)
                                                     192(r),122(r),72(r),56(r)
                                                     92(r),81(r),182(r),54(r)
 ------ non-Lewis ----------------------------------
  149. RY ( 1) O 15             0.00284     1.24455
  150. RY ( 2) O 15             0.00262     1.30617
  151. RY ( 3) O 15             0.00029     2.21326
  152. RY ( 4) O 15             0.00027     2.64930
  153. RY ( 5) O 15             0.00013     2.29966
  154. RY ( 6) O 15             0.00007     2.39413
  155. RY ( 7) O 15             0.00001     2.76667
  156. RY ( 8) O 15             0.00000     2.70199
  157. RY ( 9) O 15             0.00000     2.77049
          -------------------------------
                 Total Lewis    8.55105  ( 99.9271%)
           Valence non-Lewis    0.00000  (  0.0000%)
           Rydberg non-Lewis    0.00624  (  0.0729%)
          -------------------------------
               Total unit 15    8.55728  (100.0000%)
              Charge unit 15   -0.55728

 Molecular unit 16  (C)
 ------ Lewis --------------------------------------
    8. CR ( 1) C 16             1.99996   -10.62061  167(r)
   31. LP ( 1) C 16             1.17905    -0.12541  58(r),167(r),55(g),49(r)
                                                     57(g),168(r),48(r),164(g)
                                                     158(g),54(r),159(g),171(r)
                                                     170(r),47(r),162(g),165(g)
                                                     177(r),141(r),163(g),123(r)
                                                     125(r),112(r),122(r),115(r)
                                                     169(r),126(r),46(r),111(r)
                                                     44(r),127(r),174(r),120(r)
                                                     116(r),173(r),148(r),118(r)
                                                     147(r)
 ------ non-Lewis ----------------------------------
   55. LV ( 1) C 16             0.96925    -0.02735
   56. LV ( 2) C 16             0.75420    -0.09515
   57. LV ( 3) C 16             0.66368     0.13491
  158. RY ( 1) C 16             0.01319     0.64444
  159. RY ( 2) C 16             0.00642     1.70716
  160. RY ( 3) C 16             0.00272     1.30527
  161. RY ( 4) C 16             0.00214     1.26478
  162. RY ( 5) C 16             0.00070     1.35578
  163. RY ( 6) C 16             0.00030     1.11866
  164. RY ( 7) C 16             0.00006     2.23191
  165. RY ( 8) C 16             0.00001     2.21351
  166. RY ( 9) C 16             0.00000     1.95870
          -------------------------------
                 Total Lewis    3.17901  ( 56.8526%)
           Valence non-Lewis    2.38712  ( 42.6907%)
           Rydberg non-Lewis    0.02554  (  0.4568%)
          -------------------------------
               Total unit 16    5.59167  (100.0000%)
              Charge unit 16    0.40833

 Molecular unit 17  (H)
 ------ Lewis --------------------------------------
 ------ non-Lewis ----------------------------------
   58. LV ( 1) H 17             0.87109     0.06421
  167. RY ( 1) H 17             0.00385     0.40525
  168. RY ( 2) H 17             0.00004     2.28627
  169. RY ( 3) H 17             0.00003     1.80978
  170. RY ( 4) H 17             0.00002     1.84431
          -------------------------------
                 Total Lewis    0.00000  (  0.0000%)
           Valence non-Lewis    0.87109  ( 99.5491%)
           Rydberg non-Lewis    0.00395  (  0.4509%)
          -------------------------------
               Total unit 17    0.87504  (100.0000%)
              Charge unit 17    0.12496

 Molecular unit 18  (O)
 ------ Lewis --------------------------------------
    9. CR ( 1) O 18             1.99997   -19.60571  57(r)
   32. LP ( 1) O 18             1.98249    -0.61763  57(r),158(r),55(r),58(r)
                                                     54(r),49(r),120(r),44(r)
                                                     159(r),89(r)
   33. LP ( 2) O 18             1.89380    -0.32440  55(r),58(r),49(r),159(r)
                                                     57(r),163(r),160(r),162(r)
                                                     177(g),44(r),168(r),167(r)
                                                     125(r),161(r),89(r),169(r)
   34. LP ( 3) O 18             1.35952    -0.25574  56(r),162(r),172(g),163(r)
                                                     57(r),161(r),47(r),160(r)
                                                     179(g),44(r),166(r),40(r)
                                                     55(r),89(r),45(r),164(r)
                                                     122(r)
   35. LP ( 4) O 18             1.33260    -0.42725  57(r),55(r),173(g),58(r)
                                                     49(r),165(r),164(r),158(r)
                                                     120(r),161(r),54(r),175(g)
                                                     163(r),160(r),89(r),174(g)
                                                     178(g),159(r),46(r),111(r)
                                                     127(r),170(r),113(r),48(r)
                                                     72(r),121(r),122(r),44(r)
                                                     147(r),115(r),167(r),53(r)
                                                     141(r),126(r),125(r),39(r)
                                                     169(r),168(r),166(r)
 ------ non-Lewis ----------------------------------
  171. RY ( 1) O 18             0.00339     1.26388
  172. RY ( 2) O 18             0.00057     1.18540
  173. RY ( 3) O 18             0.00014     1.52596
  174. RY ( 4) O 18             0.00002     1.27307
  175. RY ( 5) O 18             0.00000     3.17474
  176. RY ( 6) O 18             0.00000     2.89110
  177. RY ( 7) O 18             0.00000     2.94406
  178. RY ( 8) O 18             0.00000     2.83517
  179. RY ( 9) O 18             0.00000     2.84614
          -------------------------------
                 Total Lewis    8.56838  ( 99.9519%)
           Valence non-Lewis    0.00000  (  0.0000%)
           Rydberg non-Lewis    0.00413  (  0.0481%)
          -------------------------------
               Total unit 18    8.57250  (100.0000%)
              Charge unit 18   -0.57250

 Molecular unit 19  (C)
 ------ Lewis --------------------------------------
   10. CR ( 1) C 19             1.99995   -10.61813  60(r),61(r),62(r),197(r)
                                                     189(r)
   36. LP ( 1) C 19             1.22965    -0.11623  60(r),61(r),62(r),189(r)
                                                     193(r),197(r),186(g),42(r)
                                                     40(r),184(g),183(g),185(g)
                                                     192(r),59(g),191(r),41(r)
                                                     181(g),198(r),196(r),195(r)
                                                     44(r),43(r),200(r),150(r)
                                                     194(r),180(g),151(r),156(r)
                                                     103(r),81(r),78(r),149(r)
                                                     154(r),72(r),102(r),155(r)
                                                     46(r),153(r),104(r),73(r)
                                                     65(r),63(r),137(r),64(r)
                                                     199(r)
   37. LP ( 2) C 19             1.20809    -0.10585  62(r),61(r),197(r),193(r)
                                                     188(g),60(r),183(g),182(g)
                                                     200(r),196(r),190(r),184(g)
                                                     40(r),194(r),152(r),199(r)
                                                     180(g),103(r),149(r),198(r)
                                                     189(r),153(r),75(r),63(r)
                                                     150(r),46(r),102(r),157(r)
                                                     155(r),45(r),76(r)
   38. LP ( 3) C 19             1.18894    -0.22209  60(r),61(r),62(r),189(r)
                                                     197(r),193(r),59(g),191(r)
                                                     199(r),41(r),196(r),200(r)
                                                     195(r),187(g),181(g),192(r)
                                                     81(r),103(r),194(r),180(g)
                                                     151(r),184(g),39(r),63(r)
                                                     72(r),137(r),104(r),102(r)
                                                     40(r),78(r),153(r),106(r)
                                                     155(r),46(r)
 ------ non-Lewis ----------------------------------
   59. LV ( 1) C 19             0.61970    -0.01052
  180. RY ( 1) C 19             0.00256     1.05555
  181. RY ( 2) C 19             0.00156     0.73569
  182. RY ( 3) C 19             0.00128     2.09164
  183. RY ( 4) C 19             0.00060     1.07201
  184. RY ( 5) C 19             0.00032     1.48091
  185. RY ( 6) C 19             0.00005     1.16493
  186. RY ( 7) C 19             0.00001     2.14778
  187. RY ( 8) C 19             0.00001     2.00878
  188. RY ( 9) C 19             0.00000     2.23639
          -------------------------------
                 Total Lewis    5.62663  ( 89.9871%)
           Valence non-Lewis    0.61970  (  9.9109%)
           Rydberg non-Lewis    0.00638  (  0.1020%)
          -------------------------------
               Total unit 19    6.25271  (100.0000%)
              Charge unit 19   -0.25271

 Molecular unit 20  (H)
 ------ Lewis --------------------------------------
 ------ non-Lewis ----------------------------------
   60. LV ( 1) H 20             0.78414     0.09744
  189. RY ( 1) H 20             0.00064     0.34807
  190. RY ( 2) H 20             0.00008     1.77768
  191. RY ( 3) H 20             0.00005     2.12907
  192. RY ( 4) H 20             0.00000     1.95881
          -------------------------------
                 Total Lewis    0.00000  (  0.0000%)
           Valence non-Lewis    0.78414  ( 99.9012%)
           Rydberg non-Lewis    0.00078  (  0.0988%)
          -------------------------------
               Total unit 20    0.78492  (100.0000%)
              Charge unit 20    0.21508

 Molecular unit 21  (H)
 ------ Lewis --------------------------------------
 ------ non-Lewis ----------------------------------
   61. LV ( 1) H 21             0.80483     0.07670
  193. RY ( 1) H 21             0.00193     0.46370
  194. RY ( 2) H 21             0.00008     1.85037
  195. RY ( 3) H 21             0.00007     1.85467
  196. RY ( 4) H 21             0.00001     2.22453
          -------------------------------
                 Total Lewis    0.00000  (  0.0000%)
           Valence non-Lewis    0.80483  ( 99.7403%)
           Rydberg non-Lewis    0.00210  (  0.2597%)
          -------------------------------
               Total unit 21    0.80693  (100.0000%)
              Charge unit 21    0.19307

 Molecular unit 22  (H)
 ------ Lewis --------------------------------------
 ------ non-Lewis ----------------------------------
   62. LV ( 1) H 22             0.80977     0.07004
  197. RY ( 1) H 22             0.00221     0.39638
  198. RY ( 2) H 22             0.00008     1.81110
  199. RY ( 3) H 22             0.00005     1.92727
  200. RY ( 4) H 22             0.00001     2.16796
          -------------------------------
                 Total Lewis    0.00000  (  0.0000%)
           Valence non-Lewis    0.80977  ( 99.7104%)
           Rydberg non-Lewis    0.00235  (  0.2896%)
          -------------------------------
               Total unit 22    0.81213  (100.0000%)
              Charge unit 22    0.18787

 $CHOOSE
   LONE 1 4 2 1 6 3 7 3 8 2 9 3 15 4 16 1 18 4 19 3 END
 $END

 NBO analysis completed in 0.80 CPU seconds (1 wall second)
 Maximum scratch memory used by NBO was 623068 words (4.75 MB)
 Maximum scratch memory used by G16NBO was 69762 words (0.53 MB)

 Opening RunExU unformatted file "/tmp/irc_step_000-13723.tmp/Gau-209302.EUF"
 Read unf file /tmp/irc_step_000-13723.tmp/Gau-209302.EUF:
 Label Gaussian matrix elements                                         IVers= 1 NLab= 2 Version=ES64L-G16RevB.01
 Title IRC step 0 (TS)                                                 
 NAtoms=    22 NBasis=   200 NBsUse=   200 ICharg=     0 Multip=     1 NE=    76 Len12L=8 Len4L=8 IOpCl= 0 ICGU= -1
 GAUSSIAN SCALARS                    NI= 1 NR= 1 NTot=       1 LenBuf=    2 NRI=1 N=    1000
 NPA CHARGES                         NI= 0 NR= 1 NTot=      22 LenBuf= 2048 NRI=1 N=      22
 Recovered energy= -461.832850230     dipole=      1.231143902521      0.201254356629     -1.555523027682
 Leave Link  612 at Mon May 25 01:54:32 2020, MaxMem=  8589934592 cpu:              21.6 elap:               1.5
 (Enter /opt/software/g16/l9999.exe)
 1\1\GINC-CU11\SP\RM062X\def2SVP\C8H12O2\WANG\25-May-2020\0\\#P M062X/D
 ef2SVP EM=GD3 POP(NBO6Read,Hirshfeld) NOSYMM SCFCYC=200\\IRC step 0 (T
 S)\\0,1\C,0,0.053002,1.395148,-0.464772\C,0,0.270041,1.340728,0.910965
 \H,0,0.896925,1.6158,-1.11791\H,0,-0.893216,1.841875,-0.771231\H,0,-0.
 469878,1.671592,1.640504\C,0,-0.224225,-0.496772,-1.256459\C,0,0.46288
 1,-1.42149,-0.464936\C,0,0.157646,-1.523238,0.896239\C,0,-0.809858,-0.
 733925,1.493896\H,0,-1.295783,-0.373208,-1.094853\H,0,0.082361,-0.3621
 25,-2.296745\H,0,1.366971,-1.900401,-0.846941\H,0,0.81964,-2.104683,1.
 546692\H,0,-1.638365,-0.295705,0.936221\O,0,1.47339,1.13858,1.459564\C
 ,0,-0.901065,-0.618541,2.946889\H,0,-0.1696,-1.243472,3.519224\O,0,-1.
 661691,0.125552,3.522564\C,0,2.617038,1.116815,0.633722\H,0,3.463681,0
 .874907,1.285061\H,0,2.538856,0.356448,-0.154888\H,0,2.784944,2.106048
 ,0.175508\\Version=ES64L-G16RevB.01\HF=-461.8328502\RMSD=6.125e-09\Dip
 ole=1.2311439,0.2012544,-1.555523\Quadrupole=4.3749475,2.3827468,-6.75
 76943,0.0132598,5.422031,-3.3782453\PG=C01 [X(C8H12O2)]\\@


 A MUSTACHE HAIR ACROSS A CHIP IS LIKE A REDWOOD
 TREE FALLING THROUGH A HOUSING PROJECT.
 - AN IBM MANAGER IN EAST FISHKILL, NEW YORK
   AS QUOTED IN "FROM SANDS TO CIRCUITS", IBM INNOVATION JANUARY 1985.
 Job cpu time:       0 days  0 hours  4 minutes 49.0 seconds.
 Elapsed time:       0 days  0 hours  0 minutes 18.5 seconds.
 File lengths (MBytes):  RWF=     24 Int=      0 D2E=      0 Chk=      4 Scr=      1
 Normal termination of Gaussian 16 at Mon May 25 01:54:32 2020.
