IRC step 0 (TS)                                                         
SP        RM062X                                                      def2SVP             
Number of atoms                            I               22
Info1-9                                    I   N=           9
          36          36           0           0           0         110
           1          18       -5502
Full Title                                 C   N=           2
IRC step 0 (TS)         
Route                                      C   N=           6
#P M062X/Def2SVP EM=GD3 POP(NBO6Read,Hirshfeld) NOSYMM SCFCY
C=200       
Charge                                     I                0
Multiplicity                               I                1
Number of electrons                        I               76
Number of alpha electrons                  I               38
Number of beta electrons                   I               38
Number of basis functions                  I              200
Number of independent functions            I              200
Number of point charges in /Mol/           I                0
Number of translation vectors              I                0
Atomic numbers                             I   N=          22
           6           6           1           1           1           6
           6           6           6           1           1           1
           1           1           8           6           1           8
           6           1           1           1
Nuclear charges                            R   N=          22
  6.00000000E+00  6.00000000E+00  1.00000000E+00  1.00000000E+00  1.00000000E+00
  6.00000000E+00  6.00000000E+00  6.00000000E+00  6.00000000E+00  1.00000000E+00
  1.00000000E+00  1.00000000E+00  1.00000000E+00  1.00000000E+00  8.00000000E+00
  6.00000000E+00  1.00000000E+00  8.00000000E+00  6.00000000E+00  1.00000000E+00
  1.00000000E+00  1.00000000E+00
Current cartesian coordinates              R   N=          66
  1.00159264E-01  2.63644762E+00 -8.78291790E-01  5.10303532E-01  2.53360873E+00
  1.72147436E+00  1.69494260E+00  3.05341947E+00 -2.11254373E+00 -1.68793361E+00
  3.48063931E+00 -1.45741537E+00 -8.87940732E-01  3.15885107E+00  3.10010327E+00
 -4.23723840E-01 -9.38763026E-01 -2.37436340E+00  8.74718318E-01 -2.68622679E+00
 -8.78601705E-01  2.97907765E-01 -2.87850264E+00  1.69364625E+00 -1.53040982E+00
 -1.38691725E+00  2.82305430E+00 -2.44867499E+00 -7.05260907E-01 -2.06897232E+00
  1.55639733E-01 -6.84317073E-01 -4.34021903E+00  2.58320081E+00 -3.59123742E+00
 -1.60048653E+00  1.54889512E+00 -3.97727445E+00  2.92282428E+00 -3.09606114E+00
 -5.58801464E-01  1.76920128E+00  2.78430357E+00  2.15160437E+00  2.75817622E+00
 -1.70276607E+00 -1.16887309E+00  5.56881313E+00 -3.20497551E-01 -2.34982152E+00
  6.65036953E+00 -3.14014089E+00  2.37258894E-01  6.65668122E+00  4.94548508E+00
  2.11047448E+00  1.19756102E+00  6.54540847E+00  1.65333461E+00  2.42841334E+00
  4.79774251E+00  6.73589098E-01 -2.92695900E-01  5.26278143E+00  3.97985393E+00
  3.31662053E-01
Number of symbols in /Mol/                 I                0
Force Field                                I                0
Atom Types                                 C   N=          22
                                                            
                                                            
                                                            
                                                            
                        
Int Atom Types                             I   N=          22
           0           0           0           0           0           0
           0           0           0           0           0           0
           0           0           0           0           0           0
           0           0           0           0
MM charges                                 R   N=          22
  0.00000000E+00  0.00000000E+00  0.00000000E+00  0.00000000E+00  0.00000000E+00
  0.00000000E+00  0.00000000E+00  0.00000000E+00  0.00000000E+00  0.00000000E+00
  0.00000000E+00  0.00000000E+00  0.00000000E+00  0.00000000E+00  0.00000000E+00
  0.00000000E+00  0.00000000E+00  0.00000000E+00  0.00000000E+00  0.00000000E+00
  0.00000000E+00  0.00000000E+00
Integer atomic weights                     I   N=          22
          12          12           1           1           1          12
          12          12          12           1           1           1
           1           1          16          12           1          16
          12           1           1           1
Real atomic weights                        R   N=          22
  1.20000000E+01  1.20000000E+01  1.00782504E+00  1.00782504E+00  1.00782504E+00
  1.20000000E+01  1.20000000E+01  1.20000000E+01  1.20000000E+01  1.00782504E+00
  1.00782504E+00  1.00782504E+00  1.00782504E+00  1.00782504E+00  1.59949146E+01
  1.20000000E+01  1.00782504E+00  1.59949146E+01  1.20000000E+01  1.00782504E+00
  1.00782504E+00  1.00782504E+00
Atom fragment info                         I   N=          22
           0           0           0           0           0           0
           0           0           0           0           0           0
           0           0           0           0           0           0
           0           0           0           0
Atom residue num                           I   N=          22
           0           0           0           0           0           0
           0           0           0           0           0           0
           0           0           0           0           0           0
           0           0           0           0
Nuclear spins                              I   N=          22
           0           0           1           1           1           0
           0           0           0           1           1           1
           1           1           0           0           1           0
           0           1           1           1
Nuclear ZEff                               R   N=          22
 -3.60000000E+00 -3.60000000E+00 -1.00000000E+00 -1.00000000E+00 -1.00000000E+00
 -3.60000000E+00 -3.60000000E+00 -3.60000000E+00 -3.60000000E+00 -1.00000000E+00
 -1.00000000E+00 -1.00000000E+00 -1.00000000E+00 -1.00000000E+00 -5.60000000E+00
 -3.60000000E+00 -1.00000000E+00 -5.60000000E+00 -3.60000000E+00 -1.00000000E+00
 -1.00000000E+00 -1.00000000E+00
Nuclear ZNuc                               R   N=          22
  6.00000000E+00  6.00000000E+00  1.00000000E+00  1.00000000E+00  1.00000000E+00
  6.00000000E+00  6.00000000E+00  6.00000000E+00  6.00000000E+00  1.00000000E+00
  1.00000000E+00  1.00000000E+00  1.00000000E+00  1.00000000E+00  8.00000000E+00
  6.00000000E+00  1.00000000E+00  8.00000000E+00  6.00000000E+00  1.00000000E+00
  1.00000000E+00  1.00000000E+00
Nuclear QMom                               R   N=          22
  0.00000000E+00  0.00000000E+00  0.00000000E+00  0.00000000E+00  0.00000000E+00
  0.00000000E+00  0.00000000E+00  0.00000000E+00  0.00000000E+00  0.00000000E+00
  0.00000000E+00  0.00000000E+00  0.00000000E+00  0.00000000E+00  0.00000000E+00
  0.00000000E+00  0.00000000E+00  0.00000000E+00  0.00000000E+00  0.00000000E+00
  0.00000000E+00  0.00000000E+00
Nuclear GFac                               R   N=          22
  0.00000000E+00  0.00000000E+00  2.79284600E+00  2.79284600E+00  2.79284600E+00
  0.00000000E+00  0.00000000E+00  0.00000000E+00  0.00000000E+00  2.79284600E+00
  2.79284600E+00  2.79284600E+00  2.79284600E+00  2.79284600E+00  0.00000000E+00
  0.00000000E+00  2.79284600E+00  0.00000000E+00  0.00000000E+00  2.79284600E+00
  2.79284600E+00  2.79284600E+00
MicOpt                                     I   N=          22
          -1          -1          -1          -1          -1          -1
          -1          -1          -1          -1          -1          -1
          -1          -1          -1          -1          -1          -1
          -1          -1          -1          -1
Number of residues                         I                0
Number of secondary structures             I                0
Number of contracted shells                I               96
Number of primitive shells                 I              180
Pure/Cartesian d shells                    I                0
Pure/Cartesian f shells                    I                0
Highest angular momentum                   I                2
Largest degree of contraction              I                5
Shell types                                I   N=          96
           0           0           0           1           1          -2
           0           0           0           1           1          -2
           0           0           1           0           0           1
           0           0           1           0           0           0
           1           1          -2           0           0           0
           1           1          -2           0           0           0
           1           1          -2           0           0           0
           1           1          -2           0           0           1
           0           0           1           0           0           1
           0           0           1           0           0           1
           0           0           0           1           1          -2
           0           0           0           1           1          -2
           0           0           1           0           0           0
           1           1          -2           0           0           0
           1           1          -2           0           0           1
           0           0           1           0           0           1
Number of primitives per shell             I   N=          96
           5           1           1           3           1           1
           5           1           1           3           1           1
           3           1           1           3           1           1
           3           1           1           5           1           1
           3           1           1           5           1           1
           3           1           1           5           1           1
           3           1           1           5           1           1
           3           1           1           3           1           1
           3           1           1           3           1           1
           3           1           1           3           1           1
           5           1           1           3           1           1
           5           1           1           3           1           1
           3           1           1           5           1           1
           3           1           1           5           1           1
           3           1           1           3           1           1
           3           1           1           3           1           1
Shell to atom map                          I   N=          96
           1           1           1           1           1           1
           2           2           2           2           2           2
           3           3           3           4           4           4
           5           5           5           6           6           6
           6           6           6           7           7           7
           7           7           7           8           8           8
           8           8           8           9           9           9
           9           9           9          10          10          10
          11          11          11          12          12          12
          13          13          13          14          14          14
          15          15          15          15          15          15
          16          16          16          16          16          16
          17          17          17          18          18          18
          18          18          18          19          19          19
          19          19          19          20          20          20
          21          21          21          22          22          22
Primitive exponents                        R   N=         180
  1.23840169E+03  1.86290050E+02  4.22511763E+01  1.16765579E+01  3.59305065E+00
  4.02451474E-01  1.30901827E-01  9.46809706E+00  2.01035451E+00  5.47710047E-01
  1.52686138E-01  8.00000000E-01  1.23840169E+03  1.86290050E+02  4.22511763E+01
  1.16765579E+01  3.59305065E+00  4.02451474E-01  1.30901827E-01  9.46809706E+00
  2.01035451E+00  5.47710047E-01  1.52686138E-01  8.00000000E-01  1.30107010E+01
  1.96225720E+00  4.44537960E-01  1.21949620E-01  8.00000000E-01  1.30107010E+01
  1.96225720E+00  4.44537960E-01  1.21949620E-01  8.00000000E-01  1.30107010E+01
  1.96225720E+00  4.44537960E-01  1.21949620E-01  8.00000000E-01  1.23840169E+03
  1.86290050E+02  4.22511763E+01  1.16765579E+01  3.59305065E+00  4.02451474E-01
  1.30901827E-01  9.46809706E+00  2.01035451E+00  5.47710047E-01  1.52686138E-01
  8.00000000E-01  1.23840169E+03  1.86290050E+02  4.22511763E+01  1.16765579E+01
  3.59305065E+00  4.02451474E-01  1.30901827E-01  9.46809706E+00  2.01035451E+00
  5.47710047E-01  1.52686138E-01  8.00000000E-01  1.23840169E+03  1.86290050E+02
  4.22511763E+01  1.16765579E+01  3.59305065E+00  4.02451474E-01  1.30901827E-01
  9.46809706E+00  2.01035451E+00  5.47710047E-01  1.52686138E-01  8.00000000E-01
  1.23840169E+03  1.86290050E+02  4.22511763E+01  1.16765579E+01  3.59305065E+00
  4.02451474E-01  1.30901827E-01  9.46809706E+00  2.01035451E+00  5.47710047E-01
  1.52686138E-01  8.00000000E-01  1.30107010E+01  1.96225720E+00  4.44537960E-01
  1.21949620E-01  8.00000000E-01  1.30107010E+01  1.96225720E+00  4.44537960E-01
  1.21949620E-01  8.00000000E-01  1.30107010E+01  1.96225720E+00  4.44537960E-01
  1.21949620E-01  8.00000000E-01  1.30107010E+01  1.96225720E+00  4.44537960E-01
  1.21949620E-01  8.00000000E-01  1.30107010E+01  1.96225720E+00  4.44537960E-01
  1.21949620E-01  8.00000000E-01  2.26617678E+03  3.40870102E+02  7.73631352E+01
  2.14796449E+01  6.65894331E+00  8.09759757E-01  2.55307722E-01  1.77215043E+01
  3.86355054E+00  1.04809209E+00  2.76415444E-01  1.20000000E+00  1.23840169E+03
  1.86290050E+02  4.22511763E+01  1.16765579E+01  3.59305065E+00  4.02451474E-01
  1.30901827E-01  9.46809706E+00  2.01035451E+00  5.47710047E-01  1.52686138E-01
  8.00000000E-01  1.30107010E+01  1.96225720E+00  4.44537960E-01  1.21949620E-01
  8.00000000E-01  2.26617678E+03  3.40870102E+02  7.73631352E+01  2.14796449E+01
  6.65894331E+00  8.09759757E-01  2.55307722E-01  1.77215043E+01  3.86355054E+00
  1.04809209E+00  2.76415444E-01  1.20000000E+00  1.23840169E+03  1.86290050E+02
  4.22511763E+01  1.16765579E+01  3.59305065E+00  4.02451474E-01  1.30901827E-01
  9.46809706E+00  2.01035451E+00  5.47710047E-01  1.52686138E-01  8.00000000E-01
  1.30107010E+01  1.96225720E+00  4.44537960E-01  1.21949620E-01  8.00000000E-01
  1.30107010E+01  1.96225720E+00  4.44537960E-01  1.21949620E-01  8.00000000E-01
  1.30107010E+01  1.96225720E+00  4.44537960E-01  1.21949620E-01  8.00000000E-01
Contraction coefficients                   R   N=         180
  5.51736505E-03  4.10888286E-02  1.82253821E-01  4.68284594E-01  4.45758173E-01
  1.00000000E+00  1.00000000E+00  5.68883320E-02  3.12940593E-01  7.60650165E-01
  1.00000000E+00  1.00000000E+00  5.51736505E-03  4.10888286E-02  1.82253821E-01
  4.68284594E-01  4.45758173E-01  1.00000000E+00  1.00000000E+00  5.68883320E-02
  3.12940593E-01  7.60650165E-01  1.00000000E+00  1.00000000E+00  3.34854848E-02
  2.34721871E-01  8.13770285E-01  1.00000000E+00  1.00000000E+00  3.34854848E-02
  2.34721871E-01  8.13770285E-01  1.00000000E+00  1.00000000E+00  3.34854848E-02
  2.34721871E-01  8.13770285E-01  1.00000000E+00  1.00000000E+00  5.51736505E-03
  4.10888286E-02  1.82253821E-01  4.68284594E-01  4.45758173E-01  1.00000000E+00
  1.00000000E+00  5.68883320E-02  3.12940593E-01  7.60650165E-01  1.00000000E+00
  1.00000000E+00  5.51736505E-03  4.10888286E-02  1.82253821E-01  4.68284594E-01
  4.45758173E-01  1.00000000E+00  1.00000000E+00  5.68883320E-02  3.12940593E-01
  7.60650165E-01  1.00000000E+00  1.00000000E+00  5.51736505E-03  4.10888286E-02
  1.82253821E-01  4.68284594E-01  4.45758173E-01  1.00000000E+00  1.00000000E+00
  5.68883320E-02  3.12940593E-01  7.60650165E-01  1.00000000E+00  1.00000000E+00
  5.51736505E-03  4.10888286E-02  1.82253821E-01  4.68284594E-01  4.45758173E-01
  1.00000000E+00  1.00000000E+00  5.68883320E-02  3.12940593E-01  7.60650165E-01
  1.00000000E+00  1.00000000E+00  3.34854848E-02  2.34721871E-01  8.13770285E-01
  1.00000000E+00  1.00000000E+00  3.34854848E-02  2.34721871E-01  8.13770285E-01
  1.00000000E+00  1.00000000E+00  3.34854848E-02  2.34721871E-01  8.13770285E-01
  1.00000000E+00  1.00000000E+00  3.34854848E-02  2.34721871E-01  8.13770285E-01
  1.00000000E+00  1.00000000E+00  3.34854848E-02  2.34721871E-01  8.13770285E-01
  1.00000000E+00  1.00000000E+00 -5.38935039E-03 -4.02347214E-02 -1.80081842E-01
 -4.68288577E-01 -4.46926172E-01  1.00000000E+00  1.00000000E+00  6.26302488E-02
  3.33311385E-01  7.41486383E-01  1.00000000E+00  1.00000000E+00  5.51736505E-03
  4.10888286E-02  1.82253821E-01  4.68284594E-01  4.45758173E-01  1.00000000E+00
  1.00000000E+00  5.68883320E-02  3.12940593E-01  7.60650165E-01  1.00000000E+00
  1.00000000E+00  3.34854848E-02  2.34721871E-01  8.13770285E-01  1.00000000E+00
  1.00000000E+00 -5.38935039E-03 -4.02347214E-02 -1.80081842E-01 -4.68288577E-01
 -4.46926172E-01  1.00000000E+00  1.00000000E+00  6.26302488E-02  3.33311385E-01
  7.41486383E-01  1.00000000E+00  1.00000000E+00  5.51736505E-03  4.10888286E-02
  1.82253821E-01  4.68284594E-01  4.45758173E-01  1.00000000E+00  1.00000000E+00
  5.68883320E-02  3.12940593E-01  7.60650165E-01  1.00000000E+00  1.00000000E+00
  3.34854848E-02  2.34721871E-01  8.13770285E-01  1.00000000E+00  1.00000000E+00
  3.34854848E-02  2.34721871E-01  8.13770285E-01  1.00000000E+00  1.00000000E+00
  3.34854848E-02  2.34721871E-01  8.13770285E-01  1.00000000E+00  1.00000000E+00
Coordinates of each shell                  R   N=         288
  1.00159264E-01  2.63644762E+00 -8.78291790E-01  1.00159264E-01  2.63644762E+00
 -8.78291790E-01  1.00159264E-01  2.63644762E+00 -8.78291790E-01  1.00159264E-01
  2.63644762E+00 -8.78291790E-01  1.00159264E-01  2.63644762E+00 -8.78291790E-01
  1.00159264E-01  2.63644762E+00 -8.78291790E-01  5.10303532E-01  2.53360873E+00
  1.72147436E+00  5.10303532E-01  2.53360873E+00  1.72147436E+00  5.10303532E-01
  2.53360873E+00  1.72147436E+00  5.10303532E-01  2.53360873E+00  1.72147436E+00
  5.10303532E-01  2.53360873E+00  1.72147436E+00  5.10303532E-01  2.53360873E+00
  1.72147436E+00  1.69494260E+00  3.05341947E+00 -2.11254373E+00  1.69494260E+00
  3.05341947E+00 -2.11254373E+00  1.69494260E+00  3.05341947E+00 -2.11254373E+00
 -1.68793361E+00  3.48063931E+00 -1.45741537E+00 -1.68793361E+00  3.48063931E+00
 -1.45741537E+00 -1.68793361E+00  3.48063931E+00 -1.45741537E+00 -8.87940732E-01
  3.15885107E+00  3.10010327E+00 -8.87940732E-01  3.15885107E+00  3.10010327E+00
 -8.87940732E-01  3.15885107E+00  3.10010327E+00 -4.23723840E-01 -9.38763026E-01
 -2.37436340E+00 -4.23723840E-01 -9.38763026E-01 -2.37436340E+00 -4.23723840E-01
 -9.38763026E-01 -2.37436340E+00 -4.23723840E-01 -9.38763026E-01 -2.37436340E+00
 -4.23723840E-01 -9.38763026E-01 -2.37436340E+00 -4.23723840E-01 -9.38763026E-01
 -2.37436340E+00  8.74718318E-01 -2.68622679E+00 -8.78601705E-01  8.74718318E-01
 -2.68622679E+00 -8.78601705E-01  8.74718318E-01 -2.68622679E+00 -8.78601705E-01
  8.74718318E-01 -2.68622679E+00 -8.78601705E-01  8.74718318E-01 -2.68622679E+00
 -8.78601705E-01  8.74718318E-01 -2.68622679E+00 -8.78601705E-01  2.97907765E-01
 -2.87850264E+00  1.69364625E+00  2.97907765E-01 -2.87850264E+00  1.69364625E+00
  2.97907765E-01 -2.87850264E+00  1.69364625E+00  2.97907765E-01 -2.87850264E+00
  1.69364625E+00  2.97907765E-01 -2.87850264E+00  1.69364625E+00  2.97907765E-01
 -2.87850264E+00  1.69364625E+00 -1.53040982E+00 -1.38691725E+00  2.82305430E+00
 -1.53040982E+00 -1.38691725E+00  2.82305430E+00 -1.53040982E+00 -1.38691725E+00
  2.82305430E+00 -1.53040982E+00 -1.38691725E+00  2.82305430E+00 -1.53040982E+00
 -1.38691725E+00  2.82305430E+00 -1.53040982E+00 -1.38691725E+00  2.82305430E+00
 -2.44867499E+00 -7.05260907E-01 -2.06897232E+00 -2.44867499E+00 -7.05260907E-01
 -2.06897232E+00 -2.44867499E+00 -7.05260907E-01 -2.06897232E+00  1.55639733E-01
 -6.84317073E-01 -4.34021903E+00  1.55639733E-01 -6.84317073E-01 -4.34021903E+00
  1.55639733E-01 -6.84317073E-01 -4.34021903E+00  2.58320081E+00 -3.59123742E+00
 -1.60048653E+00  2.58320081E+00 -3.59123742E+00 -1.60048653E+00  2.58320081E+00
 -3.59123742E+00 -1.60048653E+00  1.54889512E+00 -3.97727445E+00  2.92282428E+00
  1.54889512E+00 -3.97727445E+00  2.92282428E+00  1.54889512E+00 -3.97727445E+00
  2.92282428E+00 -3.09606114E+00 -5.58801464E-01  1.76920128E+00 -3.09606114E+00
 -5.58801464E-01  1.76920128E+00 -3.09606114E+00 -5.58801464E-01  1.76920128E+00
  2.78430357E+00  2.15160437E+00  2.75817622E+00  2.78430357E+00  2.15160437E+00
  2.75817622E+00  2.78430357E+00  2.15160437E+00  2.75817622E+00  2.78430357E+00
  2.15160437E+00  2.75817622E+00  2.78430357E+00  2.15160437E+00  2.75817622E+00
  2.78430357E+00  2.15160437E+00  2.75817622E+00 -1.70276607E+00 -1.16887309E+00
  5.56881313E+00 -1.70276607E+00 -1.16887309E+00  5.56881313E+00 -1.70276607E+00
 -1.16887309E+00  5.56881313E+00 -1.70276607E+00 -1.16887309E+00  5.56881313E+00
 -1.70276607E+00 -1.16887309E+00  5.56881313E+00 -1.70276607E+00 -1.16887309E+00
  5.56881313E+00 -3.20497551E-01 -2.34982152E+00  6.65036953E+00 -3.20497551E-01
 -2.34982152E+00  6.65036953E+00 -3.20497551E-01 -2.34982152E+00  6.65036953E+00
 -3.14014089E+00  2.37258894E-01  6.65668122E+00 -3.14014089E+00  2.37258894E-01
  6.65668122E+00 -3.14014089E+00  2.37258894E-01  6.65668122E+00 -3.14014089E+00
  2.37258894E-01  6.65668122E+00 -3.14014089E+00  2.37258894E-01  6.65668122E+00
 -3.14014089E+00  2.37258894E-01  6.65668122E+00  4.94548508E+00  2.11047448E+00
  1.19756102E+00  4.94548508E+00  2.11047448E+00  1.19756102E+00  4.94548508E+00
  2.11047448E+00  1.19756102E+00  4.94548508E+00  2.11047448E+00  1.19756102E+00
  4.94548508E+00  2.11047448E+00  1.19756102E+00  4.94548508E+00  2.11047448E+00
  1.19756102E+00  6.54540847E+00  1.65333461E+00  2.42841334E+00  6.54540847E+00
  1.65333461E+00  2.42841334E+00  6.54540847E+00  1.65333461E+00  2.42841334E+00
  4.79774251E+00  6.73589098E-01 -2.92695900E-01  4.79774251E+00  6.73589098E-01
 -2.92695900E-01  4.79774251E+00  6.73589098E-01 -2.92695900E-01  5.26278143E+00
  3.97985393E+00  3.31662053E-01  5.26278143E+00  3.97985393E+00  3.31662053E-01
  5.26278143E+00  3.97985393E+00  3.31662053E-01
Num ILSW                                   I              100
ILSW                                       I   N=         100
           0           0           0           0           2           0
           0           0           0           0        4336          -1
           5           0           0           0           0           0
           0           0           0           0           0           0
           1           1           0           0           0           0
           0           0      100000           0          -1           0
           0           0           0           0           0           0
           0           0           0           1           0           0
           0 -2000000000           1           0           0           0
           0           0         131          52           0           0
           0           0          55           0           0           0
           0           0           0          22           0           1
           0           0           0           0           0           0
           0           0           0           0           0           0
           0           0           0           0           0           0
           0           0           0           0           0           0
           0           0           0           0
Num RLSW                                   I               52
RLSW                                       R   N=          52
  1.00000000E+00  1.00000000E+00  1.00000000E+00  1.00000000E+00  5.40000000E-01
  0.00000000E+00  0.00000000E+00  1.00000000E+00  0.00000000E+00  0.00000000E+00
  0.00000000E+00  0.00000000E+00  1.00000000E+00  0.00000000E+00  0.00000000E+00
  0.00000000E+00  0.00000000E+00  1.00000000E+00  0.00000000E+00  0.00000000E+00
  0.00000000E+00  0.00000000E+00  1.00000000E+00  0.00000000E+00  0.00000000E+00
  0.00000000E+00  0.00000000E+00  1.00000000E+00  0.00000000E+00  0.00000000E+00
  0.00000000E+00  0.00000000E+00  1.00000000E+00  0.00000000E+00  0.00000000E+00
  0.00000000E+00  0.00000000E+00  0.00000000E+00  1.00000000E+00  1.00000000E+00
  0.00000000E+00  1.00000000E+00  0.00000000E+00  0.00000000E+00  0.00000000E+00
  0.00000000E+00  0.00000000E+00  0.00000000E+00  0.00000000E+00  0.00000000E+00
  0.00000000E+00  0.00000000E+00
ECP-MxAtEC                                 I           250000
ECP-MaxLECP                                I               10
ECP-MaxAtL                                 I          2250000
ECP-MxTECP                                 I         11250000
ECP-LenNCZ                                 I                0
ECP-KFirst                                 I   N=         220
           0           0           0           0           0           0
           0           0           0           0           0           0
           0           0           0           0           0           0
           0           0           0           0           0           0
           0           0           0           0           0           0
           0           0           0           0           0           0
           0           0           0           0           0           0
           0           0           0           0           0           0
           0           0           0           0           0           0
           0           0           0           0           0           0
           0           0           0           0           0           0
           0           0           0           0           0           0
           0           0           0           0           0           0
           0           0           0           0           0           0
           0           0           0           0           0           0
           0           0           0           0           0           0
           0           0           0           0           0           0
           0           0           0           0           0           0
           0           0           0           0           0           0
           0           0           0           0           0           0
           0           0           0           0           0           0
           0           0           0           0           0           0
           0           0           0           0           0           0
           0           0           0           0           0           0
           0           0           0           0           0           0
           0           0           0           0           0           0
           0           0           0           0           0           0
           0           0           0           0           0           0
           0           0           0           0           0           0
           0           0           0           0           0           0
           0           0           0           0           0           0
           0           0           0           0           0           0
           0           0           0           0           0           0
           0           0           0           0           0           0
           0           0           0           0           0           0
           0           0           0           0           0           0
           0           0           0           0
ECP-KLast                                  I   N=         220
           0           0           0           0           0           0
           0           0           0           0           0           0
           0           0           0           0           0           0
           0           0           0           0           0           0
           0           0           0           0           0           0
           0           0           0           0           0           0
           0           0           0           0           0           0
           0           0           0           0           0           0
           0           0           0           0           0           0
           0           0           0           0           0           0
           0           0           0           0           0           0
           0           0           0           0           0           0
           0           0           0           0           0           0
           0           0           0           0           0           0
           0           0           0           0           0           0
           0           0           0           0           0           0
           0           0           0           0           0           0
           0           0           0           0           0           0
           0           0           0           0           0           0
           0           0           0           0           0           0
           0           0           0           0           0           0
           0           0           0           0           0           0
           0           0           0           0           0           0