HF_NH3                                                                  
SP        RB3LYP                                                      def2TZVPP           
Number of atoms                            I                6
Info1-9                                    I   N=           9
          19          19           0           0           0         110
           1          18        -502
Full Title                                 C   N=           1
HF_NH3      
Route                                      C   N=           5
# B3LYP/Def2TZVPP fchk=All Pop=NBO6Read SCFCYC=250 NOSYMM   
Charge                                     I                0
Multiplicity                               I                1
Number of electrons                        I               20
Number of alpha electrons                  I               10
Number of beta electrons                   I               10
Number of basis functions                  I              118
Number of independent functions            I              118
Number of point charges in /Mol/           I                0
Number of translation vectors              I                0
Atomic numbers                             I   N=           6
           9           1           1           7           1           1
Nuclear charges                            R   N=           6
  9.00000000E+00  1.00000000E+00  1.00000000E+00  7.00000000E+00  1.00000000E+00
  1.00000000E+00
Current cartesian coordinates              R   N=          18
 -1.53587491E-01 -3.07913298E+00  0.00000000E+00  1.00908540E+00 -4.37808158E+00
  0.00000000E+00 -3.08182206E-01  1.39407364E+00  0.00000000E+00 -1.53587491E-01
  3.30364189E+00  0.00000000E+00  8.78242657E-01  3.78535764E+00  1.53844682E+00
  8.78242657E-01  3.78535764E+00 -1.53844682E+00
Number of symbols in /Mol/                 I                0
Force Field                                I                0
Atom Types                                 C   N=           6
                                                            
            
Int Atom Types                             I   N=           6
           0           0           0           0           0           0
MM charges                                 R   N=           6
  0.00000000E+00  0.00000000E+00  0.00000000E+00  0.00000000E+00  0.00000000E+00
  0.00000000E+00
Integer atomic weights                     I   N=           6
          19           1           1          14           1           1
Real atomic weights                        R   N=           6
  1.89984032E+01  1.00782504E+00  1.00782504E+00  1.40030740E+01  1.00782504E+00
  1.00782504E+00
Atom fragment info                         I   N=           6
           0           0           0           0           0           0
Atom residue num                           I   N=           6
           0           0           0           0           0           0
Nuclear spins                              I   N=           6
           1           1           1           2           1           1
Nuclear ZEff                               R   N=           6
 -6.75000000E+00 -1.00000000E+00 -1.00000000E+00 -4.55000000E+00 -1.00000000E+00
 -1.00000000E+00
Nuclear ZNuc                               R   N=           6
  9.00000000E+00  1.00000000E+00  1.00000000E+00  7.00000000E+00  1.00000000E+00
  1.00000000E+00
Nuclear QMom                               R   N=           6
  0.00000000E+00  0.00000000E+00  0.00000000E+00  2.04400000E+00  0.00000000E+00
  0.00000000E+00
Nuclear GFac                               R   N=           6
  2.62886700E+00  2.79284600E+00  2.79284600E+00  4.03761000E-01  2.79284600E+00
  2.79284600E+00
MicOpt                                     I   N=           6
          -1          -1          -1          -1          -1          -1
Number of residues                         I                0
Number of secondary structures             I                0
Number of contracted shells                I               46
Number of primitive shells                 I               72
Pure/Cartesian d shells                    I                0
Pure/Cartesian f shells                    I                0
Highest angular momentum                   I                3
Largest degree of contraction              I                6
Shell types                                I   N=          46
           0           0           0           0           0           1
           1           1          -2          -2          -3           0
           0           0           1           1          -2           0
           0           0           1           1          -2           0
           0           0           0           0           1           1
           1          -2          -2          -3           0           0
           0           1           1          -2           0           0
           0           1           1          -2
Number of primitives per shell             I   N=          46
           6           2           1           1           1           4
           1           1           1           1           1           3
           1           1           1           1           1           3
           1           1           1           1           1           6
           2           1           1           1           4           1
           1           1           1           1           3           1
           1           1           1           1           3           1
           1           1           1           1
Shell to atom map                          I   N=          46
           1           1           1           1           1           1
           1           1           1           1           1           2
           2           2           2           2           2           3
           3           3           3           3           3           4
           4           4           4           4           4           4
           4           4           4           4           5           5
           5           5           5           5           6           6
           6           6           6           6
Primitive exponents                        R   N=          72
  3.54791004E+04  5.31847290E+03  1.21048110E+03  3.42855181E+02  1.12019432E+02
  4.07147402E+01  1.60396781E+01  6.50381867E+00  1.54404775E+00  6.12234529E-01
  2.40279797E-01  8.02339005E+01  1.85940107E+01  5.68679027E+00  1.95110063E+00
  6.69702113E-01  2.16513004E-01  3.10700000E+00  8.55000000E-01  1.91700000E+00
  3.40613410E+01  5.12357460E+00  1.16466260E+00  3.27230410E-01  1.03072410E-01
  1.40700000E+00  3.88000000E-01  1.05700000E+00  3.40613410E+01  5.12357460E+00
  1.16466260E+00  3.27230410E-01  1.03072410E-01  1.40700000E+00  3.88000000E-01
  1.05700000E+00  1.97308006E+04  2.95789587E+03  6.73221336E+02  1.90682495E+02
  6.22954419E+01  2.26541612E+01  8.97914774E+00  3.68630024E+00  8.46600768E-01
  3.36471338E-01  1.36476537E-01  4.92003805E+01  1.13467905E+01  3.42739724E+00
  1.17855251E+00  4.16422050E-01  1.42608260E-01  1.65400000E+00  4.69000000E-01
  1.09300000E+00  3.40613410E+01  5.12357460E+00  1.16466260E+00  3.27230410E-01
  1.03072410E-01  1.40700000E+00  3.88000000E-01  1.05700000E+00  3.40613410E+01
  5.12357460E+00  1.16466260E+00  3.27230410E-01  1.03072410E-01  1.40700000E+00
  3.88000000E-01  1.05700000E+00
Contraction coefficients                   R   N=          72
  5.61849911E-04  4.35519738E-03  2.26182471E-02  9.14030551E-02  2.91168707E-01
  6.77727086E-01  6.32964179E-01  4.01364757E-01  1.00000000E+00  1.00000000E+00
  1.00000000E+00  1.23213451E-02  8.57133954E-02  3.26331055E-01  6.99711146E-01
  1.00000000E+00  1.00000000E+00  1.00000000E+00  1.00000000E+00  1.00000000E+00
  2.54393072E-02  1.90085949E-01  8.52441130E-01  1.00000000E+00  1.00000000E+00
  1.00000000E+00  1.00000000E+00  1.00000000E+00  2.54393072E-02  1.90085949E-01
  8.52441130E-01  1.00000000E+00  1.00000000E+00  1.00000000E+00  1.00000000E+00
  1.00000000E+00  5.86264026E-04  4.54288206E-03  2.35584135E-02  9.47091933E-02
  2.97197849E-01  6.69162469E-01  6.45966836E-01  3.87005744E-01  1.00000000E+00
  1.00000000E+00  1.00000000E+00  1.14488251E-02  7.84223380E-02  3.08180947E-01
  7.20271964E-01  1.00000000E+00  1.00000000E+00  1.00000000E+00  1.00000000E+00
  1.00000000E+00  2.54393072E-02  1.90085949E-01  8.52441130E-01  1.00000000E+00
  1.00000000E+00  1.00000000E+00  1.00000000E+00  1.00000000E+00  2.54393072E-02
  1.90085949E-01  8.52441130E-01  1.00000000E+00  1.00000000E+00  1.00000000E+00
  1.00000000E+00  1.00000000E+00
Coordinates of each shell                  R   N=         138
 -1.53587491E-01 -3.07913298E+00  0.00000000E+00 -1.53587491E-01 -3.07913298E+00
  0.00000000E+00 -1.53587491E-01 -3.07913298E+00  0.00000000E+00 -1.53587491E-01
 -3.07913298E+00  0.00000000E+00 -1.53587491E-01 -3.07913298E+00  0.00000000E+00
 -1.53587491E-01 -3.07913298E+00  0.00000000E+00 -1.53587491E-01 -3.07913298E+00
  0.00000000E+00 -1.53587491E-01 -3.07913298E+00  0.00000000E+00 -1.53587491E-01
 -3.07913298E+00  0.00000000E+00 -1.53587491E-01 -3.07913298E+00  0.00000000E+00
 -1.53587491E-01 -3.07913298E+00  0.00000000E+00  1.00908540E+00 -4.37808158E+00
  0.00000000E+00  1.00908540E+00 -4.37808158E+00  0.00000000E+00  1.00908540E+00
 -4.37808158E+00  0.00000000E+00  1.00908540E+00 -4.37808158E+00  0.00000000E+00
  1.00908540E+00 -4.37808158E+00  0.00000000E+00  1.00908540E+00 -4.37808158E+00
  0.00000000E+00 -3.08182206E-01  1.39407364E+00  0.00000000E+00 -3.08182206E-01
  1.39407364E+00  0.00000000E+00 -3.08182206E-01  1.39407364E+00  0.00000000E+00
 -3.08182206E-01  1.39407364E+00  0.00000000E+00 -3.08182206E-01  1.39407364E+00
  0.00000000E+00 -3.08182206E-01  1.39407364E+00  0.00000000E+00 -1.53587491E-01
  3.30364189E+00  0.00000000E+00 -1.53587491E-01  3.30364189E+00  0.00000000E+00
 -1.53587491E-01  3.30364189E+00  0.00000000E+00 -1.53587491E-01  3.30364189E+00
  0.00000000E+00 -1.53587491E-01  3.30364189E+00  0.00000000E+00 -1.53587491E-01
  3.30364189E+00  0.00000000E+00 -1.53587491E-01  3.30364189E+00  0.00000000E+00
 -1.53587491E-01  3.30364189E+00  0.00000000E+00 -1.53587491E-01  3.30364189E+00
  0.00000000E+00 -1.53587491E-01  3.30364189E+00  0.00000000E+00 -1.53587491E-01
  3.30364189E+00  0.00000000E+00  8.78242657E-01  3.78535764E+00  1.53844682E+00
  8.78242657E-01  3.78535764E+00  1.53844682E+00  8.78242657E-01  3.78535764E+00
  1.53844682E+00  8.78242657E-01  3.78535764E+00  1.53844682E+00  8.78242657E-01
  3.78535764E+00  1.53844682E+00  8.78242657E-01  3.78535764E+00  1.53844682E+00
  8.78242657E-01  3.78535764E+00 -1.53844682E+00  8.78242657E-01  3.78535764E+00
 -1.53844682E+00  8.78242657E-01  3.78535764E+00 -1.53844682E+00  8.78242657E-01
  3.78535764E+00 -1.53844682E+00  8.78242657E-01  3.78535764E+00 -1.53844682E+00
  8.78242657E-01  3.78535764E+00 -1.53844682E+00
Num ILSW                                   I              100
ILSW                                       I   N=         100
           0           0           0           0           2           0
           0           0           3           0         402          -1
           5           0           0           0           0           0
           0           0           1           0           0           0
           1           1           0           0           0           0
           0           0      100000           0          -1           0
           0           0           0           0           0           0
           0           0           0           1           0           0
           0 -2000000000           1           0           0           0
           0           0           4          52           0           0
           0           0           5           0           0           0
           0           0           0           0           0           1
           0           0           0           0           0           0
           0           0           0           0           0           0
           0           0           0           0           0           0
           0           0           0           0           0           0
           0           0           0           0
Num RLSW                                   I               52
RLSW                                       R   N=          52
  8.00000000E-01  7.20000000E-01  1.00000000E+00  8.10000000E-01  2.00000000E-01
  0.00000000E+00  0.00000000E+00  1.00000000E+00  0.00000000E+00  0.00000000E+00
  0.00000000E+00  0.00000000E+00  1.00000000E+00  0.00000000E+00  0.00000000E+00
  0.00000000E+00  0.00000000E+00  1.00000000E+00  0.00000000E+00  0.00000000E+00
  0.00000000E+00  0.00000000E+00  1.00000000E+00  0.00000000E+00  0.00000000E+00
  0.00000000E+00  0.00000000E+00  1.00000000E+00  0.00000000E+00  0.00000000E+00
  0.00000000E+00  0.00000000E+00  1.00000000E+00  0.00000000E+00  0.00000000E+00
  0.00000000E+00  0.00000000E+00  0.00000000E+00  1.00000000E+00  1.00000000E+00
  0.00000000E+00  1.00000000E+00  0.00000000E+00  0.00000000E+00  0.00000000E+00
  0.00000000E+00  0.00000000E+00  0.00000000E+00  0.00000000E+00  0.00000000E+00
  0.00000000E+00  0.00000000E+00
ECP-MxAtEC                                 I           250000
ECP-MaxLECP                                I               10
ECP-MaxAtL                                 I          2250000
ECP-MxTECP                                 I         11250000
ECP-LenNCZ                                 I                0
ECP-KFirst                                 I   N=          60
           0           0           0           0           0           0
           0           0           0           0           0           0
           0           0           0           0           0           0
           0           0           0           0           0           0
           0           0           0           0           0           0
           0           0           0           0           0           0
           0           0           0           0           0           0
           0           0           0           0           0           0
           0           0           0           0           0           0
           0           0           0           0           0           0
ECP-KLast                                  I   N=          60
           0           0           0           0           0           0
           0           0           0           0           0           0
           0           0           0           0           0           0
           0           0           0           0           0           0
           0           0           0           0           0           0
           0           0           0           0           0           0
           0           0           0           0           0           0
           0           0           0           0           0           0
           0           0           0           0           0           0
           0           0           0           0           0           0
ECP-LMax                                   I   N=           6
           0           0           0           0           0           0
ECP-LPSkip                                 I   N=           6
           1           1           1           1           1           1
ECP-RNFroz                                 R   N=           6
  0.00000000E+00  0.00000000E+00  0.00000000E+00  0.00000000E+00  0.00000000E+00
  0.00000000E+00
ECP-NLP                                    I                0
ECP-CLP1                                   R      0.000000000000000E+00
ECP-CLP2                                   R      0.000000000000000E+00
ECP-ZLP                                    R      0.000000000000000E+00
MxBond                                     I                3
NBond                                      I   N=           6
           1           1           1           3           1           1
IBond                                      I   N=          18
           2           0           0           1           0           0
           4           0           0           3           5           6
           4           0           0           4           0           0
RBond                                      R   N=          18
  1.00000000E+00  0.00000000E+00  0.00000000E+00  1.00000000E+00  0.00000000E+00
  0.00000000E+00  1.00000000E+00  0.00000000E+00  0.00000000E+00  1.00000000E+00
  1.00000000E+00  1.00000000E+00  1.00000000E+00  0.00000000E+00  0.00000000E+00
  1.00000000E+00  0.00000000E+00  0.00000000E+00
Virial Ratio                               R      2.003955038933428E+00
SCF Energy                                 R     -1.570830075912277E+02
Total Energy                               R     -1.570830075912277E+02
RMS Density                                R      3.959108845507719E-09
Job Status                                 I                1
Nuclear derivative order                   I                0
External E-field                           R   N=          35
  0.00000000E+00  0.00000000E+00  0.00000000E+00  0.00000000E+00  0.00000000E+00
  0.00000000E+00  0.00000000E+00  0.00000000E+00  0.00000000E+00  0.00000000E+00
  0.00000000E+00  0.00000000E+00  0.00000000E+00  0.00000000E+00  0.00000000E+00
  0.00000000E+00  0.00000000E+00  0.00000000E+00  0.00000000E+00  0.00000000E+00
  0.00000000E+00  0.00000000E+00  0.00000000E+00  0.00000000E+00  0.00000000E+00
  0.00000000E+00  0.00000000E+00  0.00000000E+00  0.00000000E+00  0.00000000E+00
  0.00000000E+00  0.00000000E+00  0.00000000E+00  0.00000000E+00  0.00000000E+00
IOpCl                                      I                0
IROHF                                      I                0
Alpha Orbital Energies                     R   N=         118
 -2.46869760E+01 -1.42788160E+01 -1.21445393E+00 -8.39941594E-01 -5.66683017E-01
 -4.51560340E-01 -4.50928385E-01 -4.29600863E-01 -4.28103833E-01 -2.56755118E-01
 -1.22308919E-03  4.34367468E-02  1.14640842E-01  1.57225240E-01  3.04701294E-01
  3.05040754E-01  3.38670683E-01  3.63721603E-01  4.44372816E-01  4.65487776E-01
  4.96882299E-01  5.02486462E-01  5.07426144E-01  5.29487666E-01  5.82514420E-01
  5.82779733E-01  6.59476073E-01  7.10601786E-01  7.18822484E-01  7.68547158E-01
  9.48467139E-01  9.55401244E-01  1.01385449E+00  1.02348617E+00  1.18544053E+00
  1.20847102E+00  1.21525814E+00  1.34917572E+00  1.45699315E+00  1.45925551E+00
  1.52090381E+00  1.56718476E+00  1.57328139E+00  1.91082634E+00  1.91967572E+00
  1.95913621E+00  2.05514937E+00  2.10224824E+00  2.14839687E+00  2.20234469E+00
  2.21247321E+00  2.28714134E+00  2.66435373E+00  2.69919727E+00  2.85208154E+00
  2.88338075E+00  3.05190106E+00  3.06189096E+00  3.08846473E+00  3.21203087E+00
  3.21567776E+00  3.22424419E+00  3.23301037E+00  3.23582778E+00  3.27886939E+00
  3.31102007E+00  3.39814953E+00  3.44926182E+00  3.47225963E+00  3.48165108E+00
  3.55951188E+00  3.58419951E+00  3.65067532E+00  3.66226656E+00  3.67351578E+00
  3.78082132E+00  3.84775503E+00  3.89470819E+00  3.89596226E+00  4.07567877E+00
  4.08450658E+00  4.20957027E+00  4.22394655E+00  4.28653805E+00  4.34082114E+00
  4.37279473E+00  4.43789421E+00  4.60948483E+00  4.68429325E+00  4.80116906E+00
  4.80480862E+00  5.19902394E+00  5.20659079E+00  5.22644714E+00  5.25646858E+00
  5.50957002E+00  5.75891883E+00  5.76739167E+00  5.91955000E+00  5.94787877E+00
  5.97011884E+00  6.47820853E+00  6.53303319E+00  6.55365892E+00  6.86204653E+00
  6.86260236E+00  7.04633273E+00  7.05111690E+00  7.85658600E+00  7.86928357E+00
  8.27015031E+00  8.27962345E+00  8.64104567E+00  8.71772389E+00  8.73507884E+00
  9.17573154E+00  3.25168282E+01  5.66598215E+01
Alpha MO coefficients                      R   N=       13924
  4.25303115E-01  6.49084184E-01  3.27511883E-02 -1.77562681E-02  5.30234800E-03
  8.93058169E-04 -9.02659865E-04  2.46865810E-16 -1.34103443E-03  1.22568496E-03
 -5.29010337E-16 -2.52636859E-05  7.69014142E-04 -1.01238940E-17 -1.21464375E-04
 -2.27552881E-19 -1.00663491E-16 -2.01799081E-05 -2.27454211E-04  3.97632309E-04
 -2.00587632E-16  1.81448588E-16  8.14466619E-05  7.36546715E-04  3.92231275E-16
  7.28644558E-05 -8.63361373E-05 -9.57489269E-17 -2.38877437E-16  1.20111380E-04
  7.47649097E-05  8.00095044E-04  2.10923294E-03 -9.41663809E-04 -3.24892091E-04
  4.46398053E-04  1.63531081E-16 -9.19066836E-04  7.35072291E-04  1.63715655E-16
  1.07901728E-04 -2.54068109E-16  3.25559666E-16  3.55939177E-05  1.81718067E-04
  2.77618577E-05  1.31095811E-03 -2.30601610E-03  9.49805729E-06 -1.63897043E-05
 -3.95440405E-17 -2.39205154E-05  1.07230526E-03 -1.15842408E-16 -5.78573078E-05
 -3.01283721E-16 -1.88711284E-16 -1.05408243E-04 -9.77175775E-07  6.49338638E-06
 -3.37363504E-05  4.40224262E-04 -2.27193237E-03  2.13225921E-03 -3.16467627E-05
 -6.10717705E-05 -4.26357290E-16  2.38253584E-04  1.12657534E-03  3.99707221E-15
 -1.14047347E-04 -1.00225501E-03 -3.31731971E-16  2.08903226E-05  5.13135189E-16
  3.80214039E-16  4.81373349E-05  7.85595524E-06  1.19725906E-04  1.54247075E-15
 -1.24973378E-16  1.56014143E-04 -9.90988343E-05 -1.07606964E-16 -7.60951387E-06
 -1.45171425E-05  3.08717659E-16 -6.04238219E-17 -2.16556238E-05 -1.40213671E-05
  4.92158119E-05 -2.04630780E-04  2.14535392E-04  5.68638872E-06 -2.54346759E-05
  8.70136240E-06 -1.01865761E-05  7.33744864E-05 -1.07252006E-05 -5.96808661E-06
 -5.63223293E-06  1.70938346E-06 -1.57500214E-06  6.05756543E-06  4.92158119E-05
 -2.04630780E-04  2.14535392E-04  5.68638872E-06 -2.54346759E-05 -8.70136240E-06
 -1.01865761E-05  7.33744864E-05  1.07252006E-05 -5.96808661E-06  5.63223293E-06
 -1.70938346E-06 -1.57500214E-06  6.05756543E-06  1.85938192E-06 -2.79887888E-05
  2.65592894E-04 -7.73435900E-04  3.60204413E-05 -5.99966311E-06  4.49304673E-05
 -2.95069682E-16 -7.53417256E-05 -8.52505323E-05  8.98330637E-16 -3.30877610E-04
  9.82899259E-04 -7.29982729E-16 -1.49155285E-06 -4.07376312E-16  1.16397878E-16
  2.77088490E-06 -1.25554875E-05  3.69078332E-05 -1.12114760E-16  4.41049697E-16
  5.51958198E-06  9.51165481E-05  2.04293648E-16  2.98363412E-06 -5.03243512E-06
  3.78187233E-16  4.47332977E-16  8.31236293E-06 -1.40898043E-07 -1.29713784E-05
  7.82050725E-04  3.68057781E-04  1.01306343E-05  3.13385875E-05 -6.13739540E-17
 -3.59281090E-04  2.15855917E-04  4.19106467E-16 -3.42048841E-05 -1.03136750E-16
  4.18969143E-17  2.91626363E-06 -5.59530782E-05 -6.77685857E-05  1.30677234E-03
 -3.83900956E-03  1.73006339E-05 -1.02265722E-03 -1.48069951E-16  2.31288216E-05
  8.65766950E-04 -9.38901969E-17  5.71996034E-04  2.75671725E-17 -1.79197262E-16
  9.02872451E-04 -4.38818240E-05  4.48344322E-01  6.26557990E-01  3.67489074E-02
 -2.31886515E-02  1.34249632E-02  2.06813417E-03 -1.04139901E-03  7.75301641E-16
 -9.14850410E-04  1.43705359E-03  3.30754317E-15  8.88310982E-04 -1.39391255E-03
  4.75123833E-15  3.42877436E-04  1.82556069E-16 -2.51491892E-17 -2.81673646E-04
  4.43922970E-04  1.09444728E-04  2.49580586E-15  1.14890835E-15  1.38027487E-04
 -8.86948341E-05 -2.54025154E-16  5.71698080E-04  5.58127145E-04  3.08724156E-16
  4.62467932E-16  1.15761291E-04  3.35092719E-04 -3.64356800E-05  3.74530735E-05
 -1.61742633E-03  6.56832754E-04  1.89351121E-04  8.33795225E-04 -6.73102174E-05
  3.27706642E-05 -1.32440187E-04 -5.04198974E-04 -9.53627065E-04 -3.81957080E-04
 -3.20115455E-04 -2.31272805E-04 -3.64356800E-05  3.74530735E-05 -1.61742633E-03
  6.56832754E-04  1.89351121E-04 -8.33795225E-04 -6.73102174E-05  3.27706642E-05
  1.32440187E-04 -5.04198974E-04  9.53627065E-04  3.81957080E-04 -3.20115455E-04
 -2.31272805E-04 -1.02554749E-01 -2.49298026E-01  3.60906659E-01  4.69379846E-01
  1.90825360E-01  4.78891530E-02 -5.23568751E-02 -1.72248185E-16  3.36480541E-02
 -3.61722063E-02 -4.60660949E-17  3.09556328E-03 -2.65408717E-03 -3.49182975E-16
 -1.74515332E-03 -5.86462205E-17 -1.76620407E-16 -3.11529920E-04 -3.01576715E-03
 -3.25670186E-03 -4.55253935E-17  2.45166856E-16 -8.46279458E-04 -5.34466954E-03
 -8.03484494E-18 -3.17324678E-04  3.42851317E-04  8.37589676E-17 -4.99575716E-17
 -5.01373670E-04 -3.72821662E-04  9.52396156E-02  7.75879284E-02  5.57837218E-03
 -1.21114985E-02  1.36123389E-02 -4.35456100E-17 -1.12552624E-02  1.25241924E-02
  5.14675195E-17 -3.26687300E-03 -8.27523819E-17 -1.54867211E-17 -6.60978575E-04
 -5.63042680E-03  8.68803121E-04  2.28000742E-03  3.63218478E-03 -2.13772626E-05
 -9.56396144E-05 -9.31920695E-17  3.14109180E-04  5.01645025E-04  1.54052185E-16
 -6.76970758E-05 -5.00222416E-17 -1.51050915E-16 -1.14829361E-04  4.18795374E-05
 -1.47979058E-04 -3.21389298E-04  4.72827738E-04  2.58309007E-04 -2.58894975E-03
  5.57820955E-05 -3.40399568E-04  1.46454503E-16  3.45249640E-05  5.58460666E-04
 -2.94586801E-15  3.11846790E-04  1.15186059E-03 -1.10424764E-15 -5.51689305E-06
 -1.00030673E-17  7.30236871E-17 -2.62132069E-05 -6.63217882E-06  1.38617621E-04
 -1.09828816E-15 -8.17098889E-16  2.67747580E-04  7.39456789E-05  1.09063207E-18
  1.25014401E-05 -6.89390912E-06 -6.47373864E-17 -1.60329167E-16  1.30956700E-05
 -1.14645657E-05  7.56362494E-05 -6.50497967E-05 -1.80387683E-04  4.13775673E-06
 -1.15580927E-05  5.17928103E-07  1.94459893E-05 -8.31460411E-06  9.35975314E-05
 -8.95775055E-06 -7.72429751E-06  3.22406007E-06 -2.28418399E-08 -2.22459724E-06
  7.56362494E-05 -6.50497967E-05 -1.80387683E-04  4.13775673E-06 -1.15580927E-05
 -5.17928103E-07  1.94459893E-05 -8.31460411E-06 -9.35975314E-05 -8.95775055E-06
  7.72429751E-06 -3.22406007E-06 -2.28418400E-08 -2.22459724E-06  3.83751191E-04
  9.46429027E-04 -1.50963421E-03 -1.89605199E-03  3.25765465E-04 -1.07211855E-03
  3.95895801E-03  2.13828754E-16 -6.75021712E-04  3.02776082E-03  7.68048583E-16
  5.38707874E-05  1.62077509E-03 -1.80961672E-15  3.29922065E-05 -1.72900042E-16
  2.10457758E-17  9.66268134E-06  5.98796807E-05 -1.20939312E-04  1.40695212E-16
 -3.11508646E-16 -2.02342139E-04  6.29600344E-05 -1.43940698E-16  4.94396578E-06
 -2.46975085E-05  3.77260745E-18 -1.51910273E-16  1.40296654E-05 -1.82503311E-05
 -1.64322715E-03 -2.17653821E-03 -4.80094702E-05  2.35748063E-04 -1.58064841E-04
 -4.77014706E-17  2.49226500E-04 -3.74378773E-04 -3.47342698E-16  6.07839419E-05
  1.04705192E-16 -2.07498787E-16 -2.21304382E-05  1.02887290E-04  9.11561187E-02
  8.60572081E-02  9.03485692E-03  1.88545749E-03  1.18310953E-02  1.19397125E-16
  3.02559637E-03  1.06166407E-02 -4.68358496E-15 -1.34862834E-03  1.88925881E-16
 -2.48975328E-16 -2.48856677E-03  7.98078236E-04 -9.51789761E-02 -2.13831538E-01
  3.28855217E-01  3.56609405E-01  1.14323358E-01  6.68780307E-02 -3.16623946E-02
 -1.93562521E-15  4.73628218E-02 -2.28284858E-02  2.15387458E-14  9.21484681E-03
 -4.51432638E-03  4.37497986E-14  1.59540384E-03  5.44045413E-16  7.04441736E-16
 -1.55185886E-03  2.18370434E-03  1.66117923E-03  1.13788790E-14  2.85889317E-15
 -1.79406905E-03  2.37759171E-03  7.46777362E-17  1.18925730E-03  4.19036390E-04
  2.60600238E-16  2.79835103E-16  8.21757399E-06  1.20613275E-03  9.26957153E-02
  8.92569525E-02  1.09147953E-02 -5.83038596E-03 -3.55833820E-03 -1.00281013E-02
 -3.99814304E-03 -3.97655927E-03 -9.41843052E-03  1.61007718E-03  2.07491230E-03
  1.18543971E-03  3.38205638E-04  8.45335631E-04  9.26957153E-02  8.92569525E-02
  1.09147953E-02 -5.83038596E-03 -3.55833820E-03  1.00281013E-02 -3.99814304E-03
 -3.97655927E-03  9.41843052E-03  1.61007718E-03 -2.07491230E-03 -1.18543971E-03
  3.38205638E-04  8.45335631E-04 -2.87155059E-02 -7.06726968E-02  1.05039398E-01
  1.59131830E-01  2.10765921E-01 -2.82985153E-01  3.23778883E-01  1.74407434E-16
 -2.05812310E-01  2.38641035E-01  2.75694760E-16 -1.00534425E-01  1.09486931E-01
 -1.38983910E-16  3.47611673E-03  9.30522938E-17  1.37362650E-17  7.12169802E-04
  6.00200060E-03  4.86059626E-03 -1.30653521E-16 -5.02388901E-17  7.60137128E-05
  8.63636862E-03 -5.76217197E-17  9.40051610E-04 -1.07823283E-03 -1.25885302E-16
  6.24775928E-17  1.48928993E-03  9.96624333E-04 -1.65603062E-01 -2.52218254E-01
 -4.92262355E-02  1.26945252E-02 -1.41938475E-02  4.77370792E-18  1.97954724E-02
 -2.00311119E-02  1.59140018E-16  3.93857638E-03  5.09982659E-17  5.21407417E-17
  5.00847773E-04  6.78018444E-03  1.15330133E-02  2.02810722E-02  5.46645921E-02
 -1.18191527E-04  7.92470525E-05 -3.31726050E-17  3.43281905E-04 -1.18157197E-04
  6.32816060E-16 -1.70526020E-04  7.12165973E-17  3.99595175E-17 -3.81553507E-04
  8.12883084E-05  2.08420199E-03  4.83631517E-03 -8.75523693E-03 -3.36662379E-03
 -4.38248646E-02 -8.01487315E-03 -1.59188436E-02  6.70677434E-16 -7.27500152E-03
 -1.15238061E-02 -5.51353577E-15 -4.91341305E-04  1.21434991E-02 -6.83658018E-15
 -5.30128832E-04  1.18341292E-16  2.47640727E-17 -7.98155994E-04 -2.01664502E-04
 -2.79864285E-04 -2.69969628E-15 -8.89067817E-16  1.05357270E-04 -5.73964755E-04
 -4.53616277E-17 -7.23844652E-05 -8.07445920E-05 -3.53326828E-17 -1.38881820E-16
  7.65162648E-05 -7.34443368E-05 -6.60301171E-03 -4.38709273E-03 -5.28097085E-03
  2.76057876E-04  1.17191160E-05  6.23357520E-04 -8.87032624E-05 -1.18591004E-03
  4.37181528E-04 -1.10624001E-04 -7.67586302E-05  2.26713731E-05 -2.79749058E-05
  1.10196851E-05 -6.60301171E-03 -4.38709273E-03 -5.28097085E-03  2.76057876E-04
  1.17191160E-05 -6.23357520E-04 -8.87032624E-05 -1.18591004E-03 -4.37181528E-04
 -1.10624001E-04  7.67586302E-05 -2.26713731E-05 -2.79749058E-05  1.10196851E-05
  7.10153138E-15  1.77671251E-14 -3.05082742E-14 -2.79635265E-14 -3.17564565E-14
  2.31540132E-13  1.26164757E-13  1.96160561E-02  1.82000186E-13  1.01590383E-13
  1.50262426E-02  1.34753446E-13  5.12309052E-14  1.22083702E-02 -4.52627131E-16
  8.62257744E-05 -1.03335117E-04  1.71696914E-15 -8.15259189E-16 -3.11715971E-15
  3.87301029E-04 -1.65433436E-04  3.35606813E-15 -4.34472724E-15 -7.43641243E-05
 -4.49013834E-16  3.30972278E-17 -2.48567438E-05 -7.75135405E-05  2.87197077E-16