NH3_HF                                                                  
SP        RB3LYP                                                      def2TZVPP           
Number of atoms                            I                6
Info1-9                                    I   N=           9
          19          19           0           0           0         110
           1          18        -502
Full Title                                 C   N=           1
NH3_HF      
Route                                      C   N=           5
# B3LYP/Def2TZVPP fchk=All Pop=NBO6Read SCFCYC=250 NOSYMM   
Charge                                     I                0
Multiplicity                               I                1
Number of electrons                        I               20
Number of alpha electrons                  I               10
Number of beta electrons                   I               10
Number of basis functions                  I              118
Number of independent functions            I              118
Number of point charges in /Mol/           I                0
Number of translation vectors              I                0
Atomic numbers                             I   N=           6
           9           1           7           1           1           1
Nuclear charges                            R   N=           6
  9.00000000E+00  1.00000000E+00  7.00000000E+00  1.00000000E+00  1.00000000E+00
  1.00000000E+00
Current cartesian coordinates              R   N=          18
  0.00000000E+00  0.00000000E+00  2.69429025E+00  0.00000000E+00  0.00000000E+00
  8.82636271E-01  0.00000000E+00  0.00000000E+00 -2.30560382E+00  0.00000000E+00
  1.78527907E+00 -2.99734185E+00 -1.54609644E+00 -8.92640481E-01 -2.99734185E+00
  1.54609644E+00 -8.92640481E-01 -2.99734185E+00
Number of symbols in /Mol/                 I                0
Force Field                                I                0
Atom Types                                 C   N=           6
                                                            
            
Int Atom Types                             I   N=           6
           0           0           0           0           0           0
MM charges                                 R   N=           6
  0.00000000E+00  0.00000000E+00  0.00000000E+00  0.00000000E+00  0.00000000E+00
  0.00000000E+00
Integer atomic weights                     I   N=           6
          19           1          14           1           1           1
Real atomic weights                        R   N=           6
  1.89984032E+01  1.00782504E+00  1.40030740E+01  1.00782504E+00  1.00782504E+00
  1.00782504E+00
Atom fragment info                         I   N=           6
           0           0           0           0           0           0
Atom residue num                           I   N=           6
           0           0           0           0           0           0
Nuclear spins                              I   N=           6
           1           1           2           1           1           1
Nuclear ZEff                               R   N=           6
 -6.75000000E+00 -1.00000000E+00 -4.55000000E+00 -1.00000000E+00 -1.00000000E+00
 -1.00000000E+00
Nuclear ZNuc                               R   N=           6
  9.00000000E+00  1.00000000E+00  7.00000000E+00  1.00000000E+00  1.00000000E+00
  1.00000000E+00
Nuclear QMom                               R   N=           6
  0.00000000E+00  0.00000000E+00  2.04400000E+00  0.00000000E+00  0.00000000E+00
  0.00000000E+00
Nuclear GFac                               R   N=           6
  2.62886700E+00  2.79284600E+00  4.03761000E-01  2.79284600E+00  2.79284600E+00
  2.79284600E+00
MicOpt                                     I   N=           6
          -1          -1          -1          -1          -1          -1
Number of residues                         I                0
Number of secondary structures             I                0
Number of contracted shells                I               46
Number of primitive shells                 I               72
Pure/Cartesian d shells                    I                0
Pure/Cartesian f shells                    I                0
Highest angular momentum                   I                3
Largest degree of contraction              I                6
Shell types                                I   N=          46
           0           0           0           0           0           1
           1           1          -2          -2          -3           0
           0           0           1           1          -2           0
           0           0           0           0           1           1
           1          -2          -2          -3           0           0
           0           1           1          -2           0           0
           0           1           1          -2           0           0
           0           1           1          -2
Number of primitives per shell             I   N=          46
           6           2           1           1           1           4
           1           1           1           1           1           3
           1           1           1           1           1           6
           2           1           1           1           4           1
           1           1           1           1           3           1
           1           1           1           1           3           1
           1           1           1           1           3           1
           1           1           1           1
Shell to atom map                          I   N=          46
           1           1           1           1           1           1
           1           1           1           1           1           2
           2           2           2           2           2           3
           3           3           3           3           3           3
           3           3           3           3           4           4
           4           4           4           4           5           5
           5           5           5           5           6           6
           6           6           6           6
Primitive exponents                        R   N=          72
  3.54791004E+04  5.31847290E+03  1.21048110E+03  3.42855181E+02  1.12019432E+02
  4.07147402E+01  1.60396781E+01  6.50381867E+00  1.54404775E+00  6.12234529E-01
  2.40279797E-01  8.02339005E+01  1.85940107E+01  5.68679027E+00  1.95110063E+00
  6.69702113E-01  2.16513004E-01  3.10700000E+00  8.55000000E-01  1.91700000E+00
  3.40613410E+01  5.12357460E+00  1.16466260E+00  3.27230410E-01  1.03072410E-01
  1.40700000E+00  3.88000000E-01  1.05700000E+00  1.97308006E+04  2.95789587E+03
  6.73221336E+02  1.90682495E+02  6.22954419E+01  2.26541612E+01  8.97914774E+00
  3.68630024E+00  8.46600768E-01  3.36471338E-01  1.36476537E-01  4.92003805E+01
  1.13467905E+01  3.42739724E+00  1.17855251E+00  4.16422050E-01  1.42608260E-01
  1.65400000E+00  4.69000000E-01  1.09300000E+00  3.40613410E+01  5.12357460E+00
  1.16466260E+00  3.27230410E-01  1.03072410E-01  1.40700000E+00  3.88000000E-01
  1.05700000E+00  3.40613410E+01  5.12357460E+00  1.16466260E+00  3.27230410E-01
  1.03072410E-01  1.40700000E+00  3.88000000E-01  1.05700000E+00  3.40613410E+01
  5.12357460E+00  1.16466260E+00  3.27230410E-01  1.03072410E-01  1.40700000E+00
  3.88000000E-01  1.05700000E+00
Contraction coefficients                   R   N=          72
  5.61849911E-04  4.35519738E-03  2.26182471E-02  9.14030551E-02  2.91168707E-01
  6.77727086E-01  6.32964179E-01  4.01364757E-01  1.00000000E+00  1.00000000E+00
  1.00000000E+00  1.23213451E-02  8.57133954E-02  3.26331055E-01  6.99711146E-01
  1.00000000E+00  1.00000000E+00  1.00000000E+00  1.00000000E+00  1.00000000E+00
  2.54393072E-02  1.90085949E-01  8.52441130E-01  1.00000000E+00  1.00000000E+00
  1.00000000E+00  1.00000000E+00  1.00000000E+00  5.86264026E-04  4.54288206E-03
  2.35584135E-02  9.47091933E-02  2.97197849E-01  6.69162469E-01  6.45966836E-01
  3.87005744E-01  1.00000000E+00  1.00000000E+00  1.00000000E+00  1.14488251E-02
  7.84223380E-02  3.08180947E-01  7.20271964E-01  1.00000000E+00  1.00000000E+00
  1.00000000E+00  1.00000000E+00  1.00000000E+00  2.54393072E-02  1.90085949E-01
  8.52441130E-01  1.00000000E+00  1.00000000E+00  1.00000000E+00  1.00000000E+00
  1.00000000E+00  2.54393072E-02  1.90085949E-01  8.52441130E-01  1.00000000E+00
  1.00000000E+00  1.00000000E+00  1.00000000E+00  1.00000000E+00  2.54393072E-02
  1.90085949E-01  8.52441130E-01  1.00000000E+00  1.00000000E+00  1.00000000E+00
  1.00000000E+00  1.00000000E+00
Coordinates of each shell                  R   N=         138
  0.00000000E+00  0.00000000E+00  2.69429025E+00  0.00000000E+00  0.00000000E+00
  2.69429025E+00  0.00000000E+00  0.00000000E+00  2.69429025E+00  0.00000000E+00
  0.00000000E+00  2.69429025E+00  0.00000000E+00  0.00000000E+00  2.69429025E+00
  0.00000000E+00  0.00000000E+00  2.69429025E+00  0.00000000E+00  0.00000000E+00
  2.69429025E+00  0.00000000E+00  0.00000000E+00  2.69429025E+00  0.00000000E+00
  0.00000000E+00  2.69429025E+00  0.00000000E+00  0.00000000E+00  2.69429025E+00
  0.00000000E+00  0.00000000E+00  2.69429025E+00  0.00000000E+00  0.00000000E+00
  8.82636271E-01  0.00000000E+00  0.00000000E+00  8.82636271E-01  0.00000000E+00
  0.00000000E+00  8.82636271E-01  0.00000000E+00  0.00000000E+00  8.82636271E-01
  0.00000000E+00  0.00000000E+00  8.82636271E-01  0.00000000E+00  0.00000000E+00
  8.82636271E-01  0.00000000E+00  0.00000000E+00 -2.30560382E+00  0.00000000E+00
  0.00000000E+00 -2.30560382E+00  0.00000000E+00  0.00000000E+00 -2.30560382E+00
  0.00000000E+00  0.00000000E+00 -2.30560382E+00  0.00000000E+00  0.00000000E+00
 -2.30560382E+00  0.00000000E+00  0.00000000E+00 -2.30560382E+00  0.00000000E+00
  0.00000000E+00 -2.30560382E+00  0.00000000E+00  0.00000000E+00 -2.30560382E+00
  0.00000000E+00  0.00000000E+00 -2.30560382E+00  0.00000000E+00  0.00000000E+00
 -2.30560382E+00  0.00000000E+00  0.00000000E+00 -2.30560382E+00  0.00000000E+00
  1.78527907E+00 -2.99734185E+00  0.00000000E+00  1.78527907E+00 -2.99734185E+00
  0.00000000E+00  1.78527907E+00 -2.99734185E+00  0.00000000E+00  1.78527907E+00
 -2.99734185E+00  0.00000000E+00  1.78527907E+00 -2.99734185E+00  0.00000000E+00
  1.78527907E+00 -2.99734185E+00 -1.54609644E+00 -8.92640481E-01 -2.99734185E+00
 -1.54609644E+00 -8.92640481E-01 -2.99734185E+00 -1.54609644E+00 -8.92640481E-01
 -2.99734185E+00 -1.54609644E+00 -8.92640481E-01 -2.99734185E+00 -1.54609644E+00
 -8.92640481E-01 -2.99734185E+00 -1.54609644E+00 -8.92640481E-01 -2.99734185E+00
  1.54609644E+00 -8.92640481E-01 -2.99734185E+00  1.54609644E+00 -8.92640481E-01
 -2.99734185E+00  1.54609644E+00 -8.92640481E-01 -2.99734185E+00  1.54609644E+00
 -8.92640481E-01 -2.99734185E+00  1.54609644E+00 -8.92640481E-01 -2.99734185E+00
  1.54609644E+00 -8.92640481E-01 -2.99734185E+00
Num ILSW                                   I              100
ILSW                                       I   N=         100
           0           0           0           0           2           0
           0           0           3           0         402          -1
           5           0           0           0           0           0
           0           0           1           0           0           0
           1           1           0           0           0           0
           0           0      100000           0          -1           0
           0           0           0           0           0           0
           0           0           0           1           0           0
           0 -2000000000           1           0           0           0
           0           0           4          52           0           0
           0           0           5           0           0           0
           0           0           0           0           0           1
           0           0           0           0           0           0
           0           0           0           0           0           0
           0           0           0           0           0           0
           0           0           0           0           0           0
           0           0           0           0
Num RLSW                                   I               52
RLSW                                       R   N=          52
  8.00000000E-01  7.20000000E-01  1.00000000E+00  8.10000000E-01  2.00000000E-01
  0.00000000E+00  0.00000000E+00  1.00000000E+00  0.00000000E+00  0.00000000E+00
  0.00000000E+00  0.00000000E+00  1.00000000E+00  0.00000000E+00  0.00000000E+00
  0.00000000E+00  0.00000000E+00  1.00000000E+00  0.00000000E+00  0.00000000E+00
  0.00000000E+00  0.00000000E+00  1.00000000E+00  0.00000000E+00  0.00000000E+00
  0.00000000E+00  0.00000000E+00  1.00000000E+00  0.00000000E+00  0.00000000E+00
  0.00000000E+00  0.00000000E+00  1.00000000E+00  0.00000000E+00  0.00000000E+00
  0.00000000E+00  0.00000000E+00  0.00000000E+00  1.00000000E+00  1.00000000E+00
  0.00000000E+00  1.00000000E+00  0.00000000E+00  0.00000000E+00  0.00000000E+00
  0.00000000E+00  0.00000000E+00  0.00000000E+00  0.00000000E+00  0.00000000E+00
  0.00000000E+00  0.00000000E+00
ECP-MxAtEC                                 I           250000
ECP-MaxLECP                                I               10
ECP-MaxAtL                                 I          2250000
ECP-MxTECP                                 I         11250000
ECP-LenNCZ                                 I                0
ECP-KFirst                                 I   N=          60
           0           0           0           0           0           0
           0           0           0           0           0           0
           0           0           0           0           0           0
           0           0           0           0           0           0
           0           0           0           0           0           0
           0           0           0           0           0           0
           0           0           0           0           0           0
           0           0           0           0           0           0
           0           0           0           0           0           0
           0           0           0           0           0           0
ECP-KLast                                  I   N=          60
           0           0           0           0           0           0
           0           0           0           0           0           0
           0           0           0           0           0           0
           0           0           0           0           0           0
           0           0           0           0           0           0
           0           0           0           0           0           0
           0           0           0           0           0           0
           0           0           0           0           0           0
           0           0           0           0           0           0
           0           0           0           0           0           0
ECP-LMax                                   I   N=           6
           0           0           0           0           0           0
ECP-LPSkip                                 I   N=           6
           1           1           1           1           1           1
ECP-RNFroz                                 R   N=           6
  0.00000000E+00  0.00000000E+00  0.00000000E+00  0.00000000E+00  0.00000000E+00
  0.00000000E+00
ECP-NLP                                    I                0
ECP-CLP1                                   R      0.000000000000000E+00
ECP-CLP2                                   R      0.000000000000000E+00
ECP-ZLP                                    R      0.000000000000000E+00
MxBond                                     I                3
NBond                                      I   N=           6
           1           1           3           1           1           1
IBond                                      I   N=          18
           2           0           0           1           0           0
           4           5           6           3           0           0
           3           0           0           3           0           0
RBond                                      R   N=          18
  1.00000000E+00  0.00000000E+00  0.00000000E+00  1.00000000E+00  0.00000000E+00
  0.00000000E+00  1.00000000E+00  1.00000000E+00  1.00000000E+00  1.00000000E+00
  0.00000000E+00  0.00000000E+00  1.00000000E+00  0.00000000E+00  0.00000000E+00
  1.00000000E+00  0.00000000E+00  0.00000000E+00
Virial Ratio                               R      2.004002555283225E+00
SCF Energy                                 R     -1.571026622752088E+02
Total Energy                               R     -1.571026622752088E+02
RMS Density                                R      3.352319537679047E-09
Job Status                                 I                1
Nuclear derivative order                   I                0
External E-field                           R   N=          35
  0.00000000E+00  0.00000000E+00  0.00000000E+00  0.00000000E+00  0.00000000E+00
  0.00000000E+00  0.00000000E+00  0.00000000E+00  0.00000000E+00  0.00000000E+00
  0.00000000E+00  0.00000000E+00  0.00000000E+00  0.00000000E+00  0.00000000E+00
  0.00000000E+00  0.00000000E+00  0.00000000E+00  0.00000000E+00  0.00000000E+00
  0.00000000E+00  0.00000000E+00  0.00000000E+00  0.00000000E+00  0.00000000E+00
  0.00000000E+00  0.00000000E+00  0.00000000E+00  0.00000000E+00  0.00000000E+00
  0.00000000E+00  0.00000000E+00  0.00000000E+00  0.00000000E+00  0.00000000E+00
IOpCl                                      I                0
IROHF                                      I                0
Alpha Orbital Energies                     R   N=         118
 -2.45976180E+01 -1.43434291E+01 -1.12262051E+00 -9.02826091E-01 -5.11913736E-01
 -5.11913531E-01 -4.89862470E-01 -3.49969661E-01 -3.49969656E-01 -3.24660284E-01
 -3.33615341E-03  8.01078892E-02  8.01079472E-02  1.57228673E-01  2.51915575E-01
  2.51915605E-01  3.06432581E-01  3.78476134E-01  4.12847872E-01  4.45301301E-01
  4.45301345E-01  4.97415389E-01  4.97415582E-01  5.28683931E-01  6.03814536E-01
  6.03814687E-01  6.54042858E-01  8.36903318E-01  8.36903386E-01  8.87423958E-01
  9.61721445E-01  1.09004468E+00  1.09004501E+00  1.10772374E+00  1.13830947E+00
  1.13830968E+00  1.20142375E+00  1.39912043E+00  1.39912082E+00  1.40786178E+00
  1.50589092E+00  1.50589097E+00  1.62386335E+00  1.98512751E+00  1.98512752E+00
  2.03259814E+00  2.05622741E+00  2.05622769E+00  2.29737769E+00  2.33512488E+00
  2.33512493E+00  2.47977637E+00  2.72558830E+00  2.78473047E+00  2.85358199E+00
  2.85358203E+00  3.14616618E+00  3.14616621E+00  3.14652799E+00  3.16352519E+00
  3.17302778E+00  3.17302796E+00  3.24542626E+00  3.24542659E+00  3.29000694E+00
  3.29000704E+00  3.33655267E+00  3.39016098E+00  3.39016098E+00  3.58843953E+00
  3.58843990E+00  3.65830042E+00  3.75737718E+00  3.77319934E+00  3.77319942E+00
  3.87807181E+00  3.87807193E+00  3.92627258E+00  3.99379000E+00  3.99379010E+00
  4.01753104E+00  4.21703277E+00  4.29230374E+00  4.29230408E+00  4.41613022E+00
  4.48344790E+00  4.48344805E+00  4.55952232E+00  4.80339180E+00  4.80339200E+00
  5.11654664E+00  5.16660040E+00  5.16660109E+00  5.31945254E+00  5.56104275E+00
  5.69898898E+00  5.69898962E+00  5.71561155E+00  5.87902091E+00  5.87902120E+00
  5.93485236E+00  6.45627308E+00  6.47462207E+00  6.47462291E+00  6.94052031E+00
  6.94052149E+00  7.09577104E+00  7.09577106E+00  7.90158115E+00  7.90158120E+00
  8.34741625E+00  8.34741630E+00  8.73053404E+00  8.79952770E+00  8.79952772E+00
  9.26095986E+00  3.26061840E+01  5.70107409E+01
Alpha MO coefficients                      R   N=       13924
  4.25313915E-01  6.48990691E-01  3.35924105E-02 -2.06585288E-02  7.45180877E-03
  1.05875438E-16  9.80479778E-12 -1.23506510E-03  4.05444481E-16 -4.32535116E-11
  2.89230458E-03 -3.55191297E-17  3.49132573E-11 -6.34871011E-04  1.97064153E-04
 -3.71365367E-16 -3.06017849E-12 -3.81442275E-12 -1.12577508E-16 -8.35258644E-04
 -9.69734102E-17  1.16547470E-11  2.47270807E-12 -3.55269523E-17  1.51525278E-04
  2.13462250E-16 -1.32458477E-12  6.34033296E-13  2.43231920E-16 -1.60253516E-16
  1.70473921E-08  9.14208516E-04  1.81680928E-03 -4.32350714E-03  1.26046622E-16
 -1.27730567E-11  4.29433296E-04 -5.25393151E-16  5.95609821E-11  3.56348788E-03
  1.13495976E-04 -3.88850410E-16  2.17458178E-12  5.86996039E-12  3.61055671E-16
 -8.27519619E-06  4.40447283E-05 -2.76014483E-04 -3.21409967E-04  2.13951235E-03
 -4.82891298E-16  3.05028566E-11 -2.09644809E-04  4.89374885E-15 -5.10598652E-10
  7.90853882E-04  1.19694079E-15 -4.39218188E-10  1.83000663E-03 -1.54493565E-04
  4.93537772E-16 -6.06577986E-13  4.10403619E-11  1.39930005E-17  8.45184112E-04
 -1.69239010E-15  1.86115471E-10 -5.27545285E-11 -1.85574670E-15  1.17526269E-04
 -3.39068226E-16 -2.31134377E-11 -5.31397069E-12  2.29459944E-16 -2.66316830E-16
  4.01366868E-05  1.10516553E-04 -3.76017584E-05  2.88241241E-04 -6.54738985E-17
  3.11331731E-06  5.78226223E-05 -7.80301601E-17 -1.38685678E-04 -9.03284444E-05
 -1.38796530E-05  2.47125990E-17 -3.34213145E-05  1.36114537E-05 -6.00870397E-17
  1.10516592E-04 -3.76026832E-05  2.88240741E-04 -2.69624992E-06 -1.55668127E-06
  5.78226480E-05  1.20104780E-04  6.93428934E-05 -9.03285908E-05 -1.38795998E-05
  2.89436705E-05  1.67106958E-05 -6.80580513E-06 -1.17878833E-05  1.10516592E-04
 -3.76026833E-05  2.88240741E-04  2.69624992E-06 -1.55668127E-06  5.78226480E-05
 -1.20104780E-04  6.93428934E-05 -9.03285908E-05 -1.38795998E-05 -2.89436705E-05
  1.67106958E-05 -6.80580513E-06  1.17878833E-05 -1.29674514E-06  2.35331016E-05
 -2.80460320E-04  9.14595962E-04  2.93886209E-03 -5.31176844E-16  6.40763908E-12
  1.80952092E-04 -3.97173818E-16 -6.54319938E-12 -1.22882236E-03 -3.12213554E-16
 -4.86998921E-11 -7.46104651E-04 -3.54214918E-05 -1.15998003E-16 -9.18548369E-12
 -3.49687562E-13  1.23252183E-16  2.89155856E-04  1.00995614E-15  7.56701473E-12
  2.36373091E-12  4.60943156E-17 -2.62887722E-06 -1.20793595E-15  1.90177026E-11
 -3.05434594E-12  2.77072987E-16  2.22132716E-16 -8.87470009E-08 -9.32316277E-05
 -2.16342888E-03 -1.95311766E-03  2.98655753E-16 -4.98823295E-11 -3.48793926E-05
  1.81702265E-15  2.34057399E-10 -2.66176819E-03 -2.35782658E-05  6.65298415E-16
 -1.01510909E-10 -2.82857744E-11 -4.62857033E-16  4.48352016E-01  6.26482587E-01
  3.70807687E-02 -2.28095040E-02  1.22510060E-02  1.46350437E-15 -3.69391725E-09
 -1.77873780E-03 -2.45928400E-14  1.80322712E-09  1.46377224E-04 -8.56478757E-15
 -9.87679466E-10  2.72970659E-04 -5.20679384E-04 -3.34872009E-16  1.39228805E-09
 -2.52918310E-10 -2.72290683E-16 -7.16880509E-04  6.45665246E-15 -1.87629418E-09
  1.38540483E-09  6.45960213E-15  3.28976859E-04  1.00938201E-16  5.28156961E-10
  1.30975445E-10 -1.20311998E-15 -1.64828082E-16 -8.64318030E-04 -1.27037848E-04
  1.68147409E-04 -1.53070847E-03 -4.21734049E-16  1.01392052E-03 -4.40531049E-04
  1.82804455E-15 -2.88412393E-04 -2.21924311E-04  2.87891696E-04  1.61536699E-16
  8.03050694E-04  8.38560950E-04 -1.08690826E-16 -1.27037142E-04  1.68145674E-04
 -1.53070861E-03 -8.78080529E-04 -5.06961323E-04 -4.40531546E-04  2.49771966E-04
  1.44205044E-04 -2.21925610E-04  2.87891606E-04 -6.95462769E-04 -4.01526611E-04
 -4.19279272E-04 -7.26216616E-04 -1.27037142E-04  1.68145674E-04 -1.53070861E-03
  8.78080529E-04 -5.06961323E-04 -4.40531546E-04 -2.49771966E-04  1.44205044E-04
 -2.21925610E-04  2.87891606E-04  6.95462769E-04 -4.01526611E-04 -4.19279272E-04
  7.26216616E-04 -1.02759933E-01 -2.49746148E-01  3.59685492E-01  4.76079964E-01
  2.03435817E-01 -2.06857975E-17  3.00599380E-10 -6.19616030E-02 -5.50823704E-17
 -2.45211668E-09 -4.76747002E-02  6.69216475E-16  5.05110853E-09 -4.06168026E-03
  2.95424996E-03  9.14202202E-17  7.36901377E-11 -4.66016100E-11  2.62369559E-16
  6.19765915E-03 -1.96532653E-16 -6.04872862E-10 -5.57136543E-11 -1.61937655E-16
 -7.33524325E-04  2.38472729E-17  2.79456047E-12  5.82128499E-12 -1.33070076E-16
 -1.13547095E-16 -5.30559113E-07  8.45371495E-02  6.73917888E-02  1.28888151E-02
  2.01759140E-16  4.81987130E-10  1.59532886E-02 -4.35446401E-16 -4.10335919E-09
  1.14177776E-02  5.65254005E-03 -1.37991323E-16  2.81999778E-10 -4.66786948E-11
  2.13983864E-16 -3.13957511E-03 -7.00785325E-03  1.00329023E-02  1.29126884E-02
 -2.36122020E-03 -7.73123475E-17 -1.48009809E-09  3.61793875E-03 -4.10247750E-16
  2.56563621E-08  3.47876636E-03  1.28492531E-15  3.57288366E-08 -2.38934676E-03
  4.09813412E-04  1.24432631E-16  2.57226345E-10 -1.77569856E-10 -6.71909534E-17
  2.62701629E-04  2.94614982E-17 -8.29271365E-09 -8.19701643E-09  1.56053859E-16
  8.14373431E-05 -1.74742655E-16 -5.15618415E-10  6.03818263E-10  3.05670568E-18
  3.09954559E-17 -4.34793568E-05  1.79609468E-03  2.18194407E-03 -1.58005732E-05
  1.44117567E-16 -2.46614936E-04  4.94228971E-05 -4.99968790E-16 -2.73476880E-04
  7.25642794E-04  1.85249593E-05 -9.96567438E-17 -6.24043254E-05 -7.43720749E-05
 -4.66884717E-17  1.79609494E-03  2.18200090E-03 -1.57615654E-05  2.13575880E-04
  1.23309004E-04  4.94226242E-05  2.36862868E-04  1.36747154E-04  7.25656847E-04
  1.85241718E-05  5.40453500E-05  3.12030639E-05  3.71874038E-05  6.44098710E-05
  1.79609494E-03  2.18200090E-03 -1.57615654E-05 -2.13575880E-04  1.23309004E-04
  4.94226242E-05 -2.36862868E-04  1.36747154E-04  7.25656847E-04  1.85241718E-05
 -5.40453500E-05  3.12030639E-05  3.71874038E-05 -6.44098710E-05  5.57304651E-03
  1.36324775E-02 -2.01108768E-02 -2.65369546E-02 -1.53662897E-02 -1.38290896E-15
  7.03785449E-10 -4.96262960E-03 -3.66423924E-17 -4.17838237E-09 -3.16782969E-03
  2.05063944E-15  1.30693574E-10 -1.43479412E-03  1.05210262E-04  3.86851072E-17
 -4.13833890E-10 -5.82824729E-13  1.41989261E-16 -5.15558569E-05 -3.03154378E-16
  2.92890773E-09  1.01987046E-11  2.45235243E-16  5.19810366E-05  1.65285435E-17
 -3.34197741E-10  3.37680202E-12  5.68201580E-17  1.25048207E-16 -1.47039710E-07
  7.93388518E-03  1.49088240E-02 -1.88817306E-04  3.06791585E-16 -3.03972182E-09
 -1.59301833E-03 -1.38978612E-15  1.47585182E-08 -7.01387476E-03  1.28714504E-03
 -2.94759169E-16  1.43178350E-09  1.83339105E-11 -3.51002492E-16 -9.58691611E-02
 -2.15382237E-01  3.29823550E-01  3.66061126E-01  1.06714773E-01  3.17819803E-15
 -7.06423633E-08 -6.55880886E-02 -5.48283985E-14 -7.09253654E-08 -4.27937067E-02
  3.47202640E-14 -8.03875436E-08 -9.88145928E-03 -2.96603886E-03  7.54000071E-16
  5.42244913E-09 -7.07535561E-09 -7.82218756E-17 -2.29406119E-03  9.33065928E-15
  2.32300353E-08  1.70915318E-09  1.94352694E-14  1.70618964E-03  1.32780850E-15
 -1.11863769E-09  9.12527855E-10 -3.10270229E-15  2.52722285E-16 -9.94255862E-04
  9.06656990E-02  8.76554421E-02  9.20990465E-03  1.43609355E-16 -1.14670831E-02
  3.46371371E-03 -6.39080548E-15 -1.13081318E-02  2.95811627E-03 -1.12645428E-03
 -6.55611435E-16 -1.55149762E-03 -2.30839354E-03  9.31181473E-16  9.06657310E-02
  8.76553743E-02  9.20987399E-03  9.93078292E-03  5.73354416E-03  3.46371490E-03
  9.79310135E-03  5.65406947E-03  2.95810558E-03 -1.12645277E-03  1.34363592E-03
  7.75749604E-04  1.15419367E-03  1.99912682E-03  9.06657310E-02  8.76553743E-02
  9.20987399E-03 -9.93078292E-03  5.73354416E-03  3.46371490E-03 -9.79310135E-03
  5.65406947E-03  2.95810558E-03 -1.12645277E-03 -1.34363592E-03  7.75749604E-04
  1.15419367E-03 -1.99912682E-03  1.83532723E-08  4.51112575E-08 -6.73478191E-08
 -8.89914547E-08 -9.39867591E-08 -1.89527061E-11  1.04128193E-02 -2.29870952E-07
 -1.47036710E-11  8.07923572E-03 -1.68761706E-07 -8.48281271E-12  4.66001371E-03
 -1.14287522E-07  3.60097504E-09  3.23276051E-13 -1.77673201E-04 -2.72215524E-06
  4.85657225E-15  5.11122338E-09  1.07519070E-12 -5.91055268E-04 -9.72972243E-06
  1.77693976E-14  3.06397001E-10 -3.54674823E-13  1.94849949E-04 -1.40559220E-06
  2.52310548E-15  5.84277121E-17 -1.01228863E-11  9.36130222E-08  1.74324236E-07
  4.69023414E-08 -2.23493297E-12  1.22820020E-03  1.76648676E-08 -8.52426917E-12
  4.68083297E-03 -5.23765450E-08  5.57550419E-09  1.66680785E-12 -9.15867014E-04
 -1.01520592E-04  1.84878098E-13 -3.03215613E-08 -7.14806352E-08  1.01816449E-07
  2.11343623E-07  5.49374995E-08 -6.47579626E-10  3.55788998E-01  1.13821752E-07
 -4.42350595E-10  2.43106395E-01  9.41211828E-08 -2.10031580E-10  1.15418083E-01
 -5.07215900E-08  3.37036501E-09  1.89719920E-11 -1.04237214E-02 -8.20867204E-03
  1.49402730E-11 -3.88802632E-10  1.22566347E-11 -6.75232079E-03 -2.11087512E-03
  3.79856235E-12 -4.00097496E-09  1.79403503E-12 -9.86634186E-04 -9.08751334E-04
  1.65951421E-12 -8.10248082E-17 -1.30103211E-09  1.74940394E-01  2.51950359E-01
  8.79449341E-02 -1.18681872E-11 -1.51458292E-02  8.25908396E-03 -3.21106079E-11
 -2.08411043E-02  9.44164492E-03 -1.38434725E-03 -1.15809147E-12 -3.02758381E-03
 -3.03062654E-03  6.05546845E-12 -8.74702502E-02 -1.25975200E-01 -4.39725344E-02
 -9.38192733E-03  1.10413649E-03 -4.12954361E-03 -1.66632377E-02  8.02043151E-03
 -4.72079262E-03  6.92175778E-04 -1.58673194E-03 -2.79281890E-04 -3.25293667E-03
  1.28348388E-04 -8.74702507E-02 -1.25975201E-01 -4.39725347E-02  9.38192737E-03
  1.10413646E-03 -4.12954364E-03  1.66632377E-02  8.02043145E-03 -4.72079265E-03
  6.92175782E-04  1.58673195E-03 -2.79281895E-04 -3.25293667E-03 -1.28348376E-04
  2.05366169E-16  5.54309179E-16 -1.21313397E-15  4.26525330E-16 -1.94514969E-14
  1.04128522E-02  1.89526286E-11 -2.27550390E-15  8.07924273E-03  1.47056507E-11
  1.51337354E-15  4.66005620E-03  8.48218249E-12  5.65170190E-15  1.03852422E-16
 -1.77673802E-04 -3.23305999E-13 -4.95092996E-15 -2.72215708E-06 -1.20434339E-15
 -5.91053553E-04 -1.07631549E-12 -1.78590862E-14 -9.72978488E-06  8.12121838E-17
  1.94849879E-04  3.54661001E-13 -2.56294172E-15 -1.40560538E-06  6.44813860E-12