 Entering Gaussian System, Link 0=g16
 Initial command:
 /opt/software/g16/l1.exe "/tmp/NH3_HF-32869.tmp/Gau-135146.inp" -scrdir="/tmp/NH3_HF-32869.tmp/"
 Entering Link 1 = /opt/software/g16/l1.exe PID=    135147.
  
 Copyright (c) 1988-2017, Gaussian, Inc.  All Rights Reserved.
  
 This is part of the Gaussian(R) 16 program.  It is based on
 the Gaussian(R) 09 system (copyright 2009, Gaussian, Inc.),
 the Gaussian(R) 03 system (copyright 2003, Gaussian, Inc.),
 the Gaussian(R) 98 system (copyright 1998, Gaussian, Inc.),
 the Gaussian(R) 94 system (copyright 1995, Gaussian, Inc.),
 the Gaussian 92(TM) system (copyright 1992, Gaussian, Inc.),
 the Gaussian 90(TM) system (copyright 1990, Gaussian, Inc.),
 the Gaussian 88(TM) system (copyright 1988, Gaussian, Inc.),
 the Gaussian 86(TM) system (copyright 1986, Carnegie Mellon
 University), and the Gaussian 82(TM) system (copyright 1983,
 Carnegie Mellon University). Gaussian is a federally registered
 trademark of Gaussian, Inc.
  
 This software contains proprietary and confidential information,
 including trade secrets, belonging to Gaussian, Inc.
  
 This software is provided under written license and may be
 used, copied, transmitted, or stored only in accord with that
 written license.
  
 The following legend is applicable only to US Government
 contracts under FAR:
  
                    RESTRICTED RIGHTS LEGEND
  
 Use, reproduction and disclosure by the US Government is
 subject to restrictions as set forth in subparagraphs (a)
 and (c) of the Commercial Computer Software - Restricted
 Rights clause in FAR 52.227-19.
  
 Gaussian, Inc.
 340 Quinnipiac St., Bldg. 40, Wallingford CT 06492
  
  
 ---------------------------------------------------------------
 Warning -- This program may not be used in any manner that
 competes with the business of Gaussian, Inc. or will provide
 assistance to any competitor of Gaussian, Inc.  The licensee
 of this program is prohibited from giving any competitor of
 Gaussian, Inc. access to this program.  By using this program,
 the user acknowledges that Gaussian, Inc. is engaged in the
 business of creating and licensing software in the field of
 computational chemistry and represents and warrants to the
 licensee that it is not a competitor of Gaussian, Inc. and that
 it will not use this program in any manner prohibited above.
 ---------------------------------------------------------------
  

 Cite this work as:
 Gaussian 16, Revision B.01,
 M. J. Frisch, G. W. Trucks, H. B. Schlegel, G. E. Scuseria, 
 M. A. Robb, J. R. Cheeseman, G. Scalmani, V. Barone, 
 G. A. Petersson, H. Nakatsuji, X. Li, M. Caricato, A. V. Marenich, 
 J. Bloino, B. G. Janesko, R. Gomperts, B. Mennucci, H. P. Hratchian, 
 J. V. Ortiz, A. F. Izmaylov, J. L. Sonnenberg, D. Williams-Young, 
 F. Ding, F. Lipparini, F. Egidi, J. Goings, B. Peng, A. Petrone, 
 T. Henderson, D. Ranasinghe, V. G. Zakrzewski, J. Gao, N. Rega, 
 G. Zheng, W. Liang, M. Hada, M. Ehara, K. Toyota, R. Fukuda, 
 J. Hasegawa, M. Ishida, T. Nakajima, Y. Honda, O. Kitao, H. Nakai, 
 T. Vreven, K. Throssell, J. A. Montgomery, Jr., J. E. Peralta, 
 F. Ogliaro, M. J. Bearpark, J. J. Heyd, E. N. Brothers, K. N. Kudin, 
 V. N. Staroverov, T. A. Keith, R. Kobayashi, J. Normand, 
 K. Raghavachari, A. P. Rendell, J. C. Burant, S. S. Iyengar, 
 J. Tomasi, M. Cossi, J. M. Millam, M. Klene, C. Adamo, R. Cammi, 
 J. W. Ochterski, R. L. Martin, K. Morokuma, O. Farkas, 
 J. B. Foresman, and D. J. Fox, Gaussian, Inc., Wallingford CT, 2016.
 
 ******************************************
 Gaussian 16:  ES64L-G16RevB.01 20-Dec-2017
                24-Jan-2005 
 ******************************************
 %nproc=28
 Will use up to   28 processors via shared memory.
 ---------------------------------------------------------
 # B3LYP/Def2TZVPP fchk=All Pop=NBO6Read SCFCYC=250 NOSYMM
 ---------------------------------------------------------
 1/38=1,163=2,172=1/1;
 2/12=2,15=1,17=6,18=5,40=1/2;
 3/5=44,7=202,11=2,25=1,30=1,74=-5/1,2,3;
 4//1;
 5/5=2,7=250,38=5/2;
 6/7=2,8=2,9=2,10=2,28=1,40=2,113=1,114=1,124=2103/1,12;
 99/5=1,9=1/99;
 ------
 NH3_HF
 ------
 Symbolic Z-matrix:
 Charge =  0 Multiplicity = 1
 9                     0.        0.        1.42576 
 1                     0.        0.        0.46707 
 7                     0.        0.       -1.22007 
 1                     0.        0.94473  -1.58613 
 1                    -0.81816  -0.47237  -1.58613 
 1                     0.81816  -0.47237  -1.58613 
 
                          Input orientation:                          
 ---------------------------------------------------------------------
 Center     Atomic      Atomic             Coordinates (Angstroms)
 Number     Number       Type             X           Y           Z
 ---------------------------------------------------------------------
      1          9           0        0.000000    0.000000    1.425757
      2          1           0        0.000000    0.000000    0.467071
      3          7           0        0.000000    0.000000   -1.220073
      4          1           0        0.000000    0.944729   -1.586125
      5          1           0       -0.818159   -0.472365   -1.586125
      6          1           0        0.818159   -0.472365   -1.586125
 ---------------------------------------------------------------------
                    Distance matrix (angstroms):
                    1          2          3          4          5
     1  F    0.000000
     2  H    0.958686   0.000000
     3  N    2.645830   1.687144   0.000000
     4  H    3.156572   2.260117   1.013167   0.000000
     5  H    3.156572   2.260117   1.013167   1.636319   0.000000
     6  H    3.156572   2.260117   1.013167   1.636319   1.636318
                    6
     6  H    0.000000
 Symmetry turned off by external request.
 Stoichiometry    FH4N
 Framework group  C3[C3(NHF),X(H3)]
 Deg. of freedom     4
 Full point group                 C3      NOp   3
 Rotational constants (GHZ):         187.2821219           7.4573289           7.4573287
 Standard basis: def2TZVPP (5D, 7F)
   118 basis functions,   170 primitive gaussians,   132 cartesian basis functions
    10 alpha electrons       10 beta electrons
       nuclear repulsion energy        36.9309334587 Hartrees.
 NAtoms=    6 NActive=    6 NUniq=    6 SFac= 1.00D+00 NAtFMM=   60 NAOKFM=F Big=F
 Integral buffers will be    131072 words long.
 Raffenetti 2 integral format.
 Two-electron integral symmetry is turned off.
 One-electron integrals computed using PRISM.
   1 Symmetry operations used in ECPInt.
 ECPInt:  NShTT=    1081 NPrTT=    2684 LenC2=    1077 LenP2D=    2434.
 LDataN:  DoStor=T MaxTD1= 6 Len=  172
 NBasis=   118 RedAO= T EigKep=  8.59D-04  NBF=   118
 NBsUse=   118 1.00D-06 EigRej= -1.00D+00 NBFU=   118
 ExpMin= 1.03D-01 ExpMax= 3.55D+04 ExpMxC= 1.21D+03 IAcc=3 IRadAn=         5 AccDes= 0.00D+00
 Harris functional with IExCor=  402 and IRadAn=       5 diagonalized for initial guess.
 HarFok:  IExCor=  402 AccDes= 0.00D+00 IRadAn=         5 IDoV= 1 UseB2=F ITyADJ=14
 ICtDFT=  3500011 ScaDFX=  1.000000  1.000000  1.000000  1.000000
 FoFCou: FMM=F IPFlag=           0 FMFlag=      100000 FMFlg1=           0
         NFxFlg=           0 DoJE=T BraDBF=F KetDBF=T FulRan=T
         wScrn=  0.000000 ICntrl=       500 IOpCl=  0 I1Cent=   200000004 NGrid=           0
         NMat0=    1 NMatS0=      1 NMatT0=    0 NMatD0=    1 NMtDS0=    0 NMtDT0=    0
 Symmetry not used in FoFCou.
 Keep R1 ints in memory in canonical form, NReq=51522257.
 Requested convergence on RMS density matrix=1.00D-08 within 250 cycles.
 Requested convergence on MAX density matrix=1.00D-06.
 Requested convergence on             energy=1.00D-06.
 No special actions if energy rises.
 Integral accuracy reduced to 1.0D-05 until final iterations.
 Initial convergence to 1.0D-05 achieved.  Increase integral accuracy.
 SCF Done:  E(RB3LYP) =  -157.102662275     A.U. after   10 cycles
            NFock= 10  Conv=0.34D-08     -V/T= 2.0040

 **********************************************************************

            Population analysis using the SCF Density.

 **********************************************************************

 Alpha  occ. eigenvalues --  -24.59762 -14.34343  -1.12262  -0.90283  -0.51191
 Alpha  occ. eigenvalues --   -0.51191  -0.48986  -0.34997  -0.34997  -0.32466
 Alpha virt. eigenvalues --   -0.00334   0.08011   0.08011   0.15723   0.25192
 Alpha virt. eigenvalues --    0.25192   0.30643   0.37848   0.41285   0.44530
 Alpha virt. eigenvalues --    0.44530   0.49742   0.49742   0.52868   0.60381
 Alpha virt. eigenvalues --    0.60381   0.65404   0.83690   0.83690   0.88742
 Alpha virt. eigenvalues --    0.96172   1.09004   1.09005   1.10772   1.13831
 Alpha virt. eigenvalues --    1.13831   1.20142   1.39912   1.39912   1.40786
 Alpha virt. eigenvalues --    1.50589   1.50589   1.62386   1.98513   1.98513
 Alpha virt. eigenvalues --    2.03260   2.05623   2.05623   2.29738   2.33512
 Alpha virt. eigenvalues --    2.33512   2.47978   2.72559   2.78473   2.85358
 Alpha virt. eigenvalues --    2.85358   3.14617   3.14617   3.14653   3.16353
 Alpha virt. eigenvalues --    3.17303   3.17303   3.24543   3.24543   3.29001
 Alpha virt. eigenvalues --    3.29001   3.33655   3.39016   3.39016   3.58844
 Alpha virt. eigenvalues --    3.58844   3.65830   3.75738   3.77320   3.77320
 Alpha virt. eigenvalues --    3.87807   3.87807   3.92627   3.99379   3.99379
 Alpha virt. eigenvalues --    4.01753   4.21703   4.29230   4.29230   4.41613
 Alpha virt. eigenvalues --    4.48345   4.48345   4.55952   4.80339   4.80339
 Alpha virt. eigenvalues --    5.11655   5.16660   5.16660   5.31945   5.56104
 Alpha virt. eigenvalues --    5.69899   5.69899   5.71561   5.87902   5.87902
 Alpha virt. eigenvalues --    5.93485   6.45627   6.47462   6.47462   6.94052
 Alpha virt. eigenvalues --    6.94052   7.09577   7.09577   7.90158   7.90158
 Alpha virt. eigenvalues --    8.34742   8.34742   8.73053   8.79953   8.79953
 Alpha virt. eigenvalues --    9.26096  32.60618  57.01074
          Condensed to atoms (all electrons):
               1          2          3          4          5          6
     1  F    9.134811   0.308249  -0.046973   0.000721   0.000721   0.000721
     2  H    0.308249   0.301873   0.085021  -0.001733  -0.001733  -0.001733
     3  N   -0.046973   0.085021   6.217294   0.379664   0.379664   0.379664
     4  H    0.000721  -0.001733   0.379664   0.518390  -0.028941  -0.028941
     5  H    0.000721  -0.001733   0.379664  -0.028941   0.518391  -0.028942
     6  H    0.000721  -0.001733   0.379664  -0.028941  -0.028942   0.518391
 Mulliken charges:
               1
     1  F   -0.398249
     2  H    0.310057
     3  N   -0.394333
     4  H    0.160842
     5  H    0.160842
     6  H    0.160842
 Sum of Mulliken charges =  -0.00000
 Mulliken charges with hydrogens summed into heavy atoms:
               1
     1  F   -0.088192
     3  N    0.088192
 Electronic spatial extent (au):  <R**2>=            167.4274
 Charge=             -0.0000 electrons
 Dipole moment (field-independent basis, Debye):
    X=              0.0000    Y=             -0.0000    Z=             -4.7514  Tot=              4.7514
 Quadrupole moment (field-independent basis, Debye-Ang):
   XX=            -11.7926   YY=            -11.7926   ZZ=            -13.5257
   XY=             -0.0000   XZ=             -0.0000   YZ=              0.0000
 Traceless Quadrupole moment (field-independent basis, Debye-Ang):
   XX=              0.5777   YY=              0.5777   ZZ=             -1.1554
   XY=             -0.0000   XZ=             -0.0000   YZ=              0.0000
 Octapole moment (field-independent basis, Debye-Ang**2):
  XXX=              0.0000  YYY=              1.0088  ZZZ=             -5.5499  XYY=              0.0000
  XXY=             -1.0088  XXZ=             -1.1468  XZZ=              0.0000  YZZ=             -0.0000
  YYZ=             -1.1468  XYZ=              0.0000
 Hexadecapole moment (field-independent basis, Debye-Ang**3):
 XXXX=            -13.4516 YYYY=            -13.4516 ZZZZ=           -154.9218 XXXY=             -0.0000
 XXXZ=             -0.0000 YYYX=             -0.0000 YYYZ=             -1.6951 ZZZX=             -0.0000
 ZZZY=              0.0000 XXYY=             -4.4839 XXZZ=            -24.0389 YYZZ=            -24.0389
 XXYZ=              1.6951 YYXZ=             -0.0000 ZZXY=             -0.0000
 N-N= 3.693093345875D+01 E-N=-4.465693911438D+02  KE= 1.564763570058D+02
 Running external command "gaunbo6 R"
         input file       "/tmp/NH3_HF-32869.tmp/Gau-135147.EIn"
         output file      "/tmp/NH3_HF-32869.tmp/Gau-135147.EOu"
         message file     "/tmp/NH3_HF-32869.tmp/Gau-135147.EMs"
         fchk file        "/tmp/NH3_HF-32869.tmp/Gau-135147.EFC"
         mat. el file     "/tmp/NH3_HF-32869.tmp/Gau-135147.EUF"

 Writing WrtUnf unformatted file "/tmp/NH3_HF-32869.tmp/Gau-135147.EUF"
 Gaussian matrix elements                                         Version   2 NLab=11 Len12L=8 Len4L=8
 Write SHELL TO ATOM MAP                   from file     0 offset           0 length                  46 to matrix element file.
 Write SHELL TYPES                         from file     0 offset           0 length                  46 to matrix element file.
 Write NUMBER OF PRIMITIVES PER SHELL      from file     0 offset           0 length                  46 to matrix element file.
 Write PRIMITIVE EXPONENTS                 from file     0 offset           0 length                  72 to matrix element file.
 Write CONTRACTION COEFFICIENTS            from file     0 offset           0 length                  72 to matrix element file.
 Write P(S=P) CONTRACTION COEFFICIENTS     from file     0 offset           0 length                  72 to matrix element file.
 Write COORDINATES OF EACH SHELL           from file     0 offset           0 length                 138 to matrix element file.
 Write BONDS PER ATOM                      from file     0 offset           0 length                   6 to matrix element file.
 Write BONDED ATOMS                        from file     0 offset           0 length                   8 to matrix element file.
 Write BOND TYPES                          from file     0 offset           0 length                   8 to matrix element file.
 Write GAUSSIAN SCALARS                    from file   501 offset           0 to matrix element file.
 Write INTEGER ISO                         from file     0 offset           0 length                   6 to matrix element file.
 Write INTEGER SPIN                        from file     0 offset           0 length                   6 to matrix element file.
 Write REAL ZEFFECTIVE                     from file     0 offset           0 length                   6 to matrix element file.
 Write REAL QUADRUPOLEMOMENT               from file     0 offset           0 length                   6 to matrix element file.
 Write REAL GFACTOR                        from file     0 offset           0 length                   6 to matrix element file.
 Write REAL ZNUCLEAR                       from file     0 offset           0 length                   6 to matrix element file.
 Write MULLIKEN CHARGES                    from file     0 offset           0 length                   6 to matrix element file.
 Write NUCLEAR GRADIENT                    from file 10584 offset           0 length                  18 to matrix element file.
 Array NUCLEAR FORCE CONSTANTS              on  file 10585 does not exist.
 Write ELECTRIC DIPOLE MOMENT              from file     0 offset           0 length                   3 to matrix element file.
 Write NON-ADIABATIC COUPLING              from file 10810 offset           0 length                  18 to matrix element file.
 Write OVERLAP                             from file 10514 offset           0 length                7021 to matrix element file.
 Write CORE HAMILTONIAN ALPHA              from file 10515 offset           0 length                7021 to matrix element file.
 Write CORE HAMILTONIAN BETA               from file 10515 offset        7021 length                7021 to matrix element file.
 Write KINETIC ENERGY                      from file 10516 offset           0 length                7021 to matrix element file.
 Write ORTHOGONAL BASIS                    from file 10685 offset           0 length               13924 to matrix element file.
 Write DIPOLE INTEGRALS                    from file 10518 offset           0 length               21063 to matrix element file.
 Array DIP VEL INTEGRALS                    on  file 10572 does not exist.
 Array R X DEL INTEGRALS                    on  file 10572 does not exist.
 Write ALPHA ORBITAL ENERGIES              from file     0 offset           0 length                 118 to matrix element file.
 Write ALPHA MO COEFFICIENTS               from file 10524 offset           0 length               13924 to matrix element file.
 Write ALPHA DENSITY MATRIX                from file     0 offset           0 length                7021 to matrix element file.
 Write ALPHA SCF DENSITY MATRIX            from file 10528 offset           0 length                7021 to matrix element file.
 Write ALPHA FOCK MATRIX                   from file 10536 offset           0 length                7021 to matrix element file.
 Write ALPHA SCF DENSITY                   from file     0 offset           0 length                7021 to matrix element file.
 No 2e integrals to process.
 Perform NBO analysis...

 *********************************** NBO 7.0 ***********************************
             N A T U R A L   A T O M I C   O R B I T A L   A N D
          N A T U R A L   B O N D   O R B I T A L   A N A L Y S I S
 ***************************** Yang Wang (I101673) *****************************
  (c) Copyright 1996-2019 Board of Regents of the University of Wisconsin System
      on behalf of the Theoretical Chemistry Institute.  All rights reserved.

          Cite this program [NBO 7.0.4 (28-Mar-2019)] as:

          NBO 7.0.  E. D. Glendening, J. K. Badenhoop, A. E. Reed,
          J. E. Carpenter, J. A. Bohmann, C. M. Morales, P. Karafiloglou,
          C. R. Landis, and F. Weinhold, Theoretical Chemistry Institute,
          University of Wisconsin, Madison, WI (2018)

       /NOBOND / : No two-center NBO search
       /MCB    / : Search for 1-center NBOs
       /AONAO  / : Write the AO to NAO transformation to lfn33
       /BNDIDX / : Print bond indices based on the NAO density matrix

 Filename set to /tmp/NH3_HF-32869.tmp/Gau-135147

 Job title:  NH3_HF


 NATURAL POPULATIONS:  Natural atomic orbital occupancies

  NAO Atom No lang   Type(AO)    Occupancy      Energy
 -------------------------------------------------------
   1    F  1  s      Cor( 1s)     2.00000     -24.59755
   2    F  1  s      Val( 2s)     1.89836      -1.00786
   3    F  1  s      Ryd( 4s)     0.00011       5.91602
   4    F  1  s      Ryd( 3s)     0.00002       3.16135
   5    F  1  s      Ryd( 5s)     0.00000      52.93024
   6    F  1  px     Val( 2p)     1.99605      -0.34722
   7    F  1  px     Ryd( 3p)     0.00010       0.79237
   8    F  1  px     Ryd( 4p)     0.00000       3.18284
   9    F  1  py     Val( 2p)     1.99605      -0.34722
  10    F  1  py     Ryd( 3p)     0.00010       0.79237
  11    F  1  py     Ryd( 4p)     0.00000       3.18284
  12    F  1  pz     Val( 2p)     1.71855      -0.34946
  13    F  1  pz     Ryd( 3p)     0.00056       1.14145
  14    F  1  pz     Ryd( 4p)     0.00009       3.61830
  15    F  1  dxy    Ryd( 3d)     0.00000       2.03570
  16    F  1  dxy    Ryd( 4d)     0.00000       8.32657
  17    F  1  dxz    Ryd( 3d)     0.00136       2.21777
  18    F  1  dxz    Ryd( 4d)     0.00000       8.52746
  19    F  1  dyz    Ryd( 3d)     0.00136       2.21777
  20    F  1  dyz    Ryd( 4d)     0.00000       8.52746
  21    F  1  dx2y2  Ryd( 3d)     0.00000       2.03570
  22    F  1  dx2y2  Ryd( 4d)     0.00000       8.32657
  23    F  1  dz2    Ryd( 3d)     0.00373       2.57436
  24    F  1  dz2    Ryd( 4d)     0.00000       8.83573
  25    F  1  f(0)   Ryd( 4f)     0.00005       8.28029
  26    F  1  f(c1)  Ryd( 4f)     0.00003       7.80721
  27    F  1  f(s1)  Ryd( 4f)     0.00003       7.80721
  28    F  1  f(c2)  Ryd( 4f)     0.00000       7.05579
  29    F  1  f(s2)  Ryd( 4f)     0.00000       7.05579
  30    F  1  f(c3)  Ryd( 4f)     0.00000       6.94052
  31    F  1  f(s3)  Ryd( 4f)     0.00000       6.94052

  32    H  2  s      Val( 1s)     0.44736       0.15878
  33    H  2  s      Ryd( 3s)     0.00240       1.87241
  34    H  2  s      Ryd( 2s)     0.00005       1.63493
  35    H  2  px     Ryd( 2p)     0.00113       1.38825
  36    H  2  px     Ryd( 3p)     0.00008       3.53483
  37    H  2  py     Ryd( 2p)     0.00113       1.38825
  38    H  2  py     Ryd( 3p)     0.00008       3.53483
  39    H  2  pz     Ryd( 2p)     0.00026       2.37942
  40    H  2  pz     Ryd( 3p)     0.00124       4.59144
  41    H  2  dxy    Ryd( 3d)     0.00000       3.32158
  42    H  2  dxz    Ryd( 3d)     0.00001       4.31499
  43    H  2  dyz    Ryd( 3d)     0.00001       4.31499
  44    H  2  dx2y2  Ryd( 3d)     0.00000       3.32158
  45    H  2  dz2    Ryd( 3d)     0.00001       4.84054

  46    N  3  s      Cor( 1s)     1.99999     -14.34325
  47    N  3  s      Val( 2s)     1.49654      -0.54729
  48    N  3  s      Ryd( 3s)     0.00007       1.23677
  49    N  3  s      Ryd( 4s)     0.00002       4.62716
  50    N  3  s      Ryd( 5s)     0.00000      30.12391
  51    N  3  px     Val( 2p)     1.36905      -0.24094
  52    N  3  px     Ryd( 3p)     0.00241       0.48267
  53    N  3  px     Ryd( 4p)     0.00000       2.87790
  54    N  3  py     Val( 2p)     1.36905      -0.24094
  55    N  3  py     Ryd( 3p)     0.00241       0.48267
  56    N  3  py     Ryd( 4p)     0.00000       2.87790
  57    N  3  pz     Val( 2p)     1.79352      -0.27967
  58    N  3  pz     Ryd( 3p)     0.00648       0.53483
  59    N  3  pz     Ryd( 4p)     0.00011       2.27885
  60    N  3  dxy    Ryd( 3d)     0.00145       1.60711
  61    N  3  dxy    Ryd( 4d)     0.00000       5.23394
  62    N  3  dxz    Ryd( 3d)     0.00405       1.46204
  63    N  3  dxz    Ryd( 4d)     0.00000       5.05233
  64    N  3  dyz    Ryd( 3d)     0.00405       1.46204
  65    N  3  dyz    Ryd( 4d)     0.00000       5.05233
  66    N  3  dx2y2  Ryd( 3d)     0.00145       1.60711
  67    N  3  dx2y2  Ryd( 4d)     0.00000       5.23394
  68    N  3  dz2    Ryd( 3d)     0.00125       1.50069
  69    N  3  dz2    Ryd( 4d)     0.00000       5.17755
  70    N  3  f(0)   Ryd( 4f)     0.00025       4.47047
  71    N  3  f(c1)  Ryd( 4f)     0.00004       4.43936
  72    N  3  f(s1)  Ryd( 4f)     0.00004       4.43936
  73    N  3  f(c2)  Ryd( 4f)     0.00001       4.83107
  74    N  3  f(s2)  Ryd( 4f)     0.00001       4.83107
  75    N  3  f(c3)  Ryd( 4f)     0.00000       4.69427
  76    N  3  f(s3)  Ryd( 4f)     0.00028       4.87514

  77    H  4  s      Val( 1s)     0.62367       0.06526
  78    H  4  s      Ryd( 2s)     0.00023       0.91937
  79    H  4  s      Ryd( 3s)     0.00005       1.62252
  80    H  4  px     Ryd( 2p)     0.00007       2.18990
  81    H  4  px     Ryd( 3p)     0.00008       2.93660
  82    H  4  py     Ryd( 2p)     0.00083       2.57257
  83    H  4  py     Ryd( 3p)     0.00006       3.28059
  84    H  4  pz     Ryd( 2p)     0.00031       2.30254
  85    H  4  pz     Ryd( 3p)     0.00031       2.95058
  86    H  4  dxy    Ryd( 3d)     0.00001       4.28028
  87    H  4  dxz    Ryd( 3d)     0.00000       3.59134
  88    H  4  dyz    Ryd( 3d)     0.00003       4.34353
  89    H  4  dx2y2  Ryd( 3d)     0.00005       4.14213
  90    H  4  dz2    Ryd( 3d)     0.00001       3.87390

  91    H  5  s      Val( 1s)     0.62367       0.06526
  92    H  5  s      Ryd( 2s)     0.00023       0.91937
  93    H  5  s      Ryd( 3s)     0.00005       1.62252
  94    H  5  px     Ryd( 2p)     0.00064       2.47690
  95    H  5  px     Ryd( 3p)     0.00006       3.19459
  96    H  5  py     Ryd( 2p)     0.00026       2.28557
  97    H  5  py     Ryd( 3p)     0.00007       3.02260
  98    H  5  pz     Ryd( 2p)     0.00031       2.30254
  99    H  5  pz     Ryd( 3p)     0.00031       2.95058
 100    H  5  dxy    Ryd( 3d)     0.00004       4.17667
 101    H  5  dxz    Ryd( 3d)     0.00003       4.15548
 102    H  5  dyz    Ryd( 3d)     0.00001       3.77939
 103    H  5  dx2y2  Ryd( 3d)     0.00002       4.24574
 104    H  5  dz2    Ryd( 3d)     0.00001       3.87390

 105    H  6  s      Val( 1s)     0.62367       0.06526
 106    H  6  s      Ryd( 2s)     0.00023       0.91937
 107    H  6  s      Ryd( 3s)     0.00005       1.62252
 108    H  6  px     Ryd( 2p)     0.00064       2.47690
 109    H  6  px     Ryd( 3p)     0.00006       3.19459
 110    H  6  py     Ryd( 2p)     0.00026       2.28557
 111    H  6  py     Ryd( 3p)     0.00007       3.02260
 112    H  6  pz     Ryd( 2p)     0.00031       2.30254
 113    H  6  pz     Ryd( 3p)     0.00031       2.95058
 114    H  6  dxy    Ryd( 3d)     0.00004       4.17667
 115    H  6  dxz    Ryd( 3d)     0.00003       4.15548
 116    H  6  dyz    Ryd( 3d)     0.00001       3.77939
 117    H  6  dx2y2  Ryd( 3d)     0.00002       4.24574
 118    H  6  dz2    Ryd( 3d)     0.00001       3.87390


 Summary of Natural Population Analysis:

                                     Natural Population
             Natural    ---------------------------------------------
  Atom No    Charge        Core      Valence    Rydberg      Total
 --------------------------------------------------------------------
    F  1   -0.61654      2.00000     7.60901    0.00754     9.61654
    H  2    0.54623      0.00000     0.44736    0.00641     0.45377
    N  3   -1.05255      1.99999     6.02817    0.02439     8.05255
    H  4    0.37429      0.00000     0.62367    0.00204     0.62571
    H  5    0.37429      0.00000     0.62367    0.00204     0.62571
    H  6    0.37429      0.00000     0.62367    0.00204     0.62571
 ====================================================================
 * Total *  0.00000      3.99999    15.95555    0.04446    20.00000

                                 Natural Population
 ---------------------------------------------------------
   Core                       3.99999 ( 99.9996% of    4)
   Valence                   15.95555 ( 99.7222% of   16)
   Natural Minimal Basis     19.95554 ( 99.7777% of   20)
   Natural Rydberg Basis      0.04446 (  0.2223% of   20)
 ---------------------------------------------------------

    Atom No         Natural Electron Configuration
 ----------------------------------------------------------------------------
      F  1      [core]2s( 1.90)2p( 5.71)3d( 0.01)
      H  2            1s( 0.45)
      N  3      [core]2s( 1.50)2p( 4.53)3p( 0.01)3d( 0.01)
      H  4            1s( 0.62)
      H  5            1s( 0.62)
      H  6            1s( 0.62)


 Wiberg bond index matrix in the NAO basis:

     Atom    1       2       3       4       5       6
     ---- ------  ------  ------  ------  ------  ------
   1.  F  0.0000  0.5917  0.0318  0.0008  0.0008  0.0008
   2.  H  0.5917  0.0000  0.1149  0.0001  0.0001  0.0001
   3.  N  0.0318  0.1149  0.0000  0.8599  0.8599  0.8599
   4.  H  0.0008  0.0001  0.8599  0.0000  0.0002  0.0002
   5.  H  0.0008  0.0001  0.8599  0.0002  0.0000  0.0002
   6.  H  0.0008  0.0001  0.8599  0.0002  0.0002  0.0000


 Wiberg bond index, Totals by atom:

     Atom    1
     ---- ------
   1.  F  0.6258
   2.  H  0.7067
   3.  N  2.7263
   4.  H  0.8611
   5.  H  0.8611
   6.  H  0.8611


 NBI: Natural Binding Index (NCU strength parameters)

     Atom    1       2       3       4       5       6
     ---- ------  ------  ------  ------  ------  ------
   1.  F  0.0000  0.7692  0.1784  0.0277  0.0277  0.0277
   2.  H  0.7692  0.0000  0.3389  0.0084  0.0084  0.0084
   3.  N  0.1784  0.3389  0.0000  0.9273  0.9273  0.9273
   4.  H  0.0277  0.0084  0.9273  0.0000  0.0144  0.0144
   5.  H  0.0277  0.0084  0.9273  0.0144  0.0000  0.0144
   6.  H  0.0277  0.0084  0.9273  0.0144  0.0144  0.0000


 NATURAL BOND ORBITAL ANALYSIS:

                            Occupancies       Lewis Structure    Low   High
         Max    Occ     -------------------  -----------------   occ   occ
  Cycle  Ctr   Thresh    Lewis   non-Lewis     CR  BD  nC  LP    (L)   (NL)
 ============================================================================
    1     1     1.00    17.66686   2.33314      2   0   0   8     0      4
 ----------------------------------------------------------------------------

 Structure accepted: Search for bonds prevented by NOBOND keyword

 -------------------------------------------------------
   Core                      3.99999 (100.000% of   4)
   Valence Lewis            13.66688 ( 85.418% of  16)
  ==================      =============================
   Total Lewis              17.66686 ( 88.334% of  20)
  -----------------------------------------------------
   Valence non-Lewis         2.32233 ( 11.612% of  20)
   Rydberg non-Lewis         0.01081 (  0.054% of  20)
  ==================      =============================
   Total non-Lewis           2.33314 ( 11.666% of  20)
 -------------------------------------------------------


     (Occupancy)   Bond orbital / Coefficients / Hybrids
 ------------------ Lewis ------------------------------------------------------
   1. (2.00000) CR ( 1) F  1            s(100.00%)
                                         1.0000  0.0000  0.0000  0.0000  0.0000
                                         0.0000  0.0000  0.0000  0.0000  0.0000
                                         0.0000  0.0000  0.0000  0.0000  0.0000
                                         0.0000  0.0000  0.0000  0.0000  0.0000
                                         0.0000  0.0000  0.0000  0.0000  0.0000
                                         0.0000  0.0000  0.0000  0.0000  0.0000
                                         0.0000
   2. (1.99999) CR ( 1) N  3            s(100.00%)
                                         1.0000  0.0000  0.0000  0.0000  0.0000
                                         0.0000  0.0000  0.0000  0.0000  0.0000
                                         0.0000  0.0000  0.0000  0.0000  0.0000
                                         0.0000  0.0000  0.0000  0.0000  0.0000
                                         0.0000  0.0000  0.0000  0.0000  0.0000
                                         0.0000  0.0000  0.0000  0.0000  0.0000
                                         0.0000
   3. (1.99785) LP ( 1) F  1            s( 73.56%)p 0.36( 26.43%)d 0.00(  0.01%)
                                                  f 0.00(  0.00%)
                                         0.0000  0.8576  0.0031 -0.0007  0.0000
                                         0.0000  0.0000  0.0000  0.0000  0.0000
                                         0.0000  0.5141 -0.0037 -0.0055  0.0000
                                         0.0000  0.0000  0.0000  0.0000  0.0000
                                         0.0000  0.0000 -0.0101 -0.0003  0.0012
                                         0.0000  0.0000  0.0000  0.0000  0.0000
                                         0.0000
   4. (1.99753) LP ( 2) F  1            s(  0.00%)p 1.00( 99.93%)d 0.00(  0.07%)
                                                  f 0.00(  0.00%)
                                         0.0000  0.0000  0.0000  0.0000  0.0000
                                         0.9996  0.0070  0.0005  0.0000  0.0000
                                         0.0000  0.0000  0.0000  0.0000  0.0000
                                         0.0000 -0.0261  0.0002  0.0000  0.0000
                                         0.0000  0.0000  0.0000  0.0000  0.0000
                                         0.0040  0.0000  0.0000  0.0000  0.0000
                                         0.0000
   5. (1.99753) LP ( 3) F  1            s(  0.00%)p 1.00( 99.93%)d 0.00(  0.07%)
                                                  f 0.00(  0.00%)
                                         0.0000  0.0000  0.0000  0.0000  0.0000
                                         0.0000  0.0000  0.0000  0.9996  0.0070
                                         0.0005  0.0000  0.0000  0.0000  0.0000
                                         0.0000  0.0000  0.0000 -0.0261  0.0002
                                         0.0000  0.0000  0.0000  0.0000  0.0000
                                         0.0000  0.0040  0.0000  0.0000  0.0000
                                         0.0000
   6. (1.62346) LP ( 4) F  1            s( 26.42%)p 2.78( 73.37%)d 0.01(  0.21%)
                                                  f 0.00(  0.00%)
                                         0.0000  0.5139 -0.0064  0.0014  0.0000
                                         0.0000  0.0000  0.0000  0.0000  0.0000
                                         0.0000 -0.8564  0.0173 -0.0027  0.0000
                                         0.0000  0.0000  0.0000  0.0000  0.0000
                                         0.0000  0.0000  0.0462  0.0002 -0.0053
                                         0.0000  0.0000  0.0000  0.0000  0.0000
                                         0.0000
   7. (1.92491) LP ( 1) N  3            s( 22.78%)p 3.39( 77.19%)d 0.00(  0.03%)
                                                  f 0.00(  0.00%)
                                         0.0000  0.4772 -0.0033 -0.0016  0.0000
                                         0.0000  0.0000  0.0000  0.0000  0.0000
                                         0.0000  0.8767  0.0565  0.0014  0.0000
                                         0.0000  0.0000  0.0000  0.0000  0.0000
                                         0.0000  0.0000 -0.0185 -0.0003 -0.0022
                                         0.0000  0.0000  0.0000  0.0000  0.0000
                                        -0.0051
   8. (1.37624) LP ( 2) N  3            s(  0.00%)p 1.00( 99.60%)d 0.00(  0.39%)
                                                  f 0.00(  0.00%)
                                         0.0000  0.0000  0.0000  0.0000  0.0000
                                         0.9974 -0.0353  0.0012  0.0000  0.0000
                                         0.0000  0.0000  0.0000  0.0000 -0.0323
                                        -0.0011 -0.0538  0.0004  0.0000  0.0000
                                         0.0000  0.0000  0.0000  0.0000  0.0000
                                        -0.0056  0.0000  0.0000  0.0032  0.0000
                                         0.0000
   9. (1.37624) LP ( 3) N  3            s(  0.00%)p 1.00( 99.60%)d 0.00(  0.39%)
                                                  f 0.00(  0.00%)
                                         0.0000  0.0000  0.0000  0.0000  0.0000
                                         0.0000  0.0000  0.0000  0.9974 -0.0353
                                         0.0012  0.0000  0.0000  0.0000  0.0000
                                         0.0000  0.0000  0.0000 -0.0538  0.0004
                                        -0.0323 -0.0011  0.0000  0.0000  0.0000
                                         0.0000 -0.0056  0.0032  0.0000  0.0000
                                         0.0000
  10. (1.37312) LP ( 4) N  3            s( 77.06%)p 0.30( 22.87%)d 0.00(  0.04%)
                                                  f 0.00(  0.03%)
                                         0.0000  0.8779  0.0025  0.0012  0.0000
                                         0.0000  0.0000  0.0000  0.0000  0.0000
                                         0.0000 -0.4781 -0.0022  0.0085  0.0000
                                         0.0000  0.0000  0.0000  0.0000  0.0000
                                         0.0000  0.0000 -0.0187  0.0014  0.0131
                                         0.0000  0.0000  0.0000  0.0000  0.0000
                                        -0.0128
 ---------------- non-Lewis ----------------------------------------------------
  11. (0.44810) LV ( 1) H  2            s( 99.84%)p 0.00(  0.16%)d 0.00(  0.00%)
                                         0.9992 -0.0001  0.0000  0.0000  0.0000
                                         0.0000  0.0000 -0.0211  0.0344  0.0000
                                         0.0000  0.0000  0.0000  0.0036
  12. (0.62474) LV ( 1) H  4            s( 99.83%)p 0.00(  0.16%)d 0.00(  0.01%)
                                         0.9991  0.0000  0.0000  0.0000  0.0000
                                         0.0350 -0.0034 -0.0189 -0.0007  0.0000
                                         0.0000 -0.0066 -0.0080 -0.0040
  13. (0.62474) LV ( 1) H  5            s( 99.83%)p 0.00(  0.16%)d 0.00(  0.01%)
                                         0.9991  0.0000  0.0000 -0.0303  0.0029
                                        -0.0175  0.0017 -0.0189 -0.0007  0.0070
                                         0.0057  0.0033  0.0040 -0.0040
  14. (0.62474) LV ( 1) H  6            s( 99.83%)p 0.00(  0.16%)d 0.00(  0.01%)
                                         0.9991  0.0000  0.0000  0.0303 -0.0029
                                        -0.0175  0.0017 -0.0189 -0.0007 -0.0070
                                        -0.0057  0.0033  0.0040 -0.0040
  15. (0.00015) RY ( 1) F  1            s( 24.10%)p 1.61( 38.78%)d 1.53( 36.96%)
                                                  f 0.01(  0.16%)
                                         0.0000  0.0106  0.3552  0.3386  0.0018
                                         0.0000  0.0000  0.0000  0.0000  0.0000
                                         0.0000 -0.0387 -0.5375 -0.3119  0.0000
                                         0.0000  0.0000  0.0000  0.0000  0.0000
                                         0.0000  0.0000 -0.6073 -0.0281  0.0404
                                         0.0000  0.0000  0.0000  0.0000  0.0000
                                        -0.0002
  16. (0.00001) RY ( 2) F  1            s( 31.33%)p 2.17( 68.02%)d 0.01(  0.44%)
                                                  f 0.01(  0.21%)
  17. (0.00001) RY ( 3) F  1            s(  0.00%)p 1.00( 50.20%)d 0.95( 47.90%)
                                                  f 0.04(  1.91%)
  18. (0.00001) RY ( 4) F  1            s(  0.00%)p 1.00( 50.20%)d 0.95( 47.90%)
                                                  f 0.04(  1.91%)
  19. (0.00000) RY ( 5) F  1            s( 58.31%)p 0.22( 12.98%)d 0.49( 28.70%)
                                                  f 0.00(  0.01%)
  20. (0.00000) RY ( 6) F  1            s( 70.70%)p 0.02(  1.38%)d 0.00(  0.24%)
                                                  f 0.39( 27.67%)
  21. (0.00000) RY ( 7) F  1            s(  0.00%)p 1.00( 98.55%)d 0.01(  1.39%)
                                                  f 0.00(  0.06%)
  22. (0.00000) RY ( 8) F  1            s(  0.00%)p 1.00( 98.55%)d 0.01(  1.39%)
                                                  f 0.00(  0.06%)
  23. (0.00000) RY ( 9) F  1            s( 10.70%)p 5.57( 59.57%)d 2.66( 28.43%)
                                                  f 0.12(  1.30%)
  24. (0.00000) RY (10) F  1            s(  0.00%)p 1.00(  0.61%)d99.99( 99.37%)
                                                  f 0.04(  0.02%)
  25. (0.00000) RY (11) F  1            s(  0.00%)p 1.00(  0.02%)d99.99( 99.98%)
                                                  f 0.04(  0.00%)
  26. (0.00000) RY (12) F  1            s(  0.00%)p 1.00( 49.63%)d 1.01( 50.37%)
  27. (0.00000) RY (13) F  1            s(  0.00%)p 1.00(  0.06%)d99.99( 99.93%)
                                                  f 0.04(  0.00%)
  28. (0.00000) RY (14) F  1            s(  0.00%)p 1.00( 49.63%)d 1.01( 50.37%)
  29. (0.00000) RY (15) F  1            s(  0.00%)p 1.00(  0.07%)d99.99( 99.93%)
                                                  f 0.04(  0.00%)
  30. (0.00000) RY (16) F  1            s(  0.00%)p 1.00(  0.61%)d99.99( 99.37%)
                                                  f 0.04(  0.02%)
  31. (0.00000) RY (17) F  1            s(  0.00%)p 1.00(  0.02%)d99.99( 99.98%)
                                                  f 0.04(  0.00%)
  32. (0.00000) RY (18) F  1            s( 73.11%)p 0.22( 16.02%)d 0.10(  7.23%)
                                                  f 0.05(  3.64%)
  33. (0.00000) RY (19) F  1            s(  0.19%)p13.82(  2.60%)d99.99( 97.21%)
                                                  f 0.00(  0.00%)
  34. (0.00000) RY (20) F  1            s( 31.58%)p 0.03(  0.85%)d 0.02(  0.56%)
                                                  f 2.12( 67.01%)
  35. (0.00000) RY (21) F  1            s(  0.00%)p 1.00(  1.00%)d 0.99(  0.98%)
                                                  f98.35( 98.02%)
  36. (0.00000) RY (22) F  1            s(  0.00%)p 1.00(  1.00%)d 0.99(  0.98%)
                                                  f98.35( 98.02%)
  37. (0.00000) RY (23) F  1            s(  0.00%)p 0.00(  0.01%)d 0.00(  0.01%)
                                                  f 1.00( 99.99%)
  38. (0.00000) RY (24) F  1            s(  0.00%)p 0.00(  0.01%)d 0.00(  0.01%)
                                                  f 1.00( 99.99%)
  39. (0.00000) RY (25) F  1            s(  0.00%)p 0.00(  0.00%)d 0.00(  0.00%)
                                                  f 1.00(100.00%)
  40. (0.00000) RY (26) F  1            s(  0.00%)p 0.00(  0.00%)d 0.00(  0.00%)
                                                  f 1.00(100.00%)
  41. (0.00269) RY ( 1) H  2            s( 87.44%)p 0.14( 12.56%)d 0.00(  0.00%)
                                         0.0135  0.9348 -0.0192  0.0000  0.0000
                                         0.0000  0.0000  0.0738 -0.3467  0.0000
                                         0.0000  0.0000  0.0000  0.0008
  42. (0.00116) RY ( 2) H  2            s(  0.00%)p 1.00( 98.95%)d 0.01(  1.05%)
                                         0.0000  0.0000  0.0000  0.9874  0.1208
                                         0.0000  0.0000  0.0000  0.0000  0.0026
                                         0.1022  0.0000  0.0000  0.0000
  43. (0.00116) RY ( 3) H  2            s(  0.00%)p 1.00( 98.95%)d 0.01(  1.05%)
                                         0.0000  0.0000  0.0000  0.0000  0.0000
                                         0.9874  0.1208  0.0000  0.0000  0.0000
                                         0.0000  0.1022  0.0026  0.0000
  44. (0.00053) RY ( 4) H  2            s( 18.49%)p 4.40( 81.38%)d 0.01(  0.13%)
                                        -0.0231  0.3005  0.3068  0.0000  0.0000
                                         0.0000  0.0000  0.2906  0.8540  0.0000
                                         0.0000  0.0000  0.0000 -0.0357
  45. (0.00006) RY ( 5) H  2            s(  0.00%)p 1.00( 98.88%)d 0.01(  1.12%)
  46. (0.00006) RY ( 6) H  2            s(  0.00%)p 1.00( 98.88%)d 0.01(  1.12%)
  47. (0.00001) RY ( 7) H  2            s( 46.53%)p 0.99( 46.07%)d 0.16(  7.40%)
  48. (0.00000) RY ( 8) H  2            s( 23.78%)p 2.19( 52.09%)d 1.01( 24.12%)
  49. (0.00000) RY ( 9) H  2            s( 23.92%)p 0.32(  7.73%)d 2.86( 68.35%)
  50. (0.00000) RY (10) H  2            s(  0.00%)p 1.00(  0.22%)d99.99( 99.78%)
  51. (0.00000) RY (11) H  2            s(  0.00%)p 1.00(  1.94%)d50.48( 98.06%)
  52. (0.00000) RY (12) H  2            s(  0.00%)p 1.00(  1.95%)d50.37( 98.05%)
  53. (0.00000) RY (13) H  2            s(  0.00%)p 1.00(  0.22%)d99.99( 99.78%)
  54. (0.00078) RY ( 1) N  3            s(  0.00%)p 1.00( 89.21%)d 0.12( 10.72%)
                                                  f 0.00(  0.07%)
                                         0.0000  0.0000  0.0000  0.0000  0.0000
                                         0.0442  0.9434 -0.0070  0.0000  0.0000
                                         0.0000  0.0000  0.0000  0.0000 -0.1492
                                         0.0396  0.2884 -0.0150  0.0000  0.0000
                                         0.0000  0.0000  0.0000  0.0000  0.0000
                                         0.0207  0.0000  0.0000  0.0165  0.0000
                                         0.0000
  55. (0.00078) RY ( 2) N  3            s(  0.00%)p 1.00( 89.21%)d 0.12( 10.72%)
                                                  f 0.00(  0.07%)
                                         0.0000  0.0000  0.0000  0.0000  0.0000
                                         0.0000  0.0000  0.0000  0.0442  0.9434
                                        -0.0070  0.0000  0.0000  0.0000  0.0000
                                         0.0000  0.0000  0.0000  0.2884 -0.0150
                                        -0.1492  0.0396  0.0000  0.0000  0.0000
                                         0.0000  0.0207  0.0165  0.0000  0.0000
                                         0.0000
  56. (0.00046) RY ( 3) N  3            s(  7.76%)p 8.62( 66.89%)d 3.19( 24.78%)
                                                  f 0.07(  0.58%)
                                         0.0000 -0.0322  0.2630 -0.0859 -0.0032
                                         0.0000  0.0000  0.0000  0.0000  0.0000
                                         0.0000 -0.0449  0.8165 -0.0112  0.0000
                                         0.0000  0.0000  0.0000  0.0000  0.0000
                                         0.0000  0.0000 -0.4969 -0.0297 -0.0747
                                         0.0000  0.0000  0.0000  0.0000  0.0000
                                         0.0137
  57. (0.00002) RY ( 4) N  3            s( 50.21%)p 0.66( 33.02%)d 0.33( 16.62%)
                                                  f 0.00(  0.15%)
  58. (0.00000) RY ( 5) N  3            s( 69.21%)p 0.24( 16.37%)d 0.10(  6.85%)
                                                  f 0.11(  7.57%)
  59. (0.00000) RY ( 6) N  3            s(  5.65%)p15.57( 87.96%)d 0.92(  5.20%)
                                                  f 0.21(  1.18%)
  60. (0.00000) RY ( 7) N  3            s( 32.49%)p 0.33( 10.60%)d 0.18(  5.97%)
                                                  f 1.57( 50.95%)
  61. (0.00000) RY ( 8) N  3            s( 15.13%)p 4.07( 61.63%)d 1.25( 18.86%)
                                                  f 0.29(  4.39%)
  62. (0.00000) RY ( 9) N  3            s( 22.00%)p 2.10( 46.22%)d 1.19( 26.29%)
                                                  f 0.25(  5.49%)
  63. (0.00000) RY (10) N  3            s(  1.36%)p 2.95(  4.02%)d67.39( 91.83%)
                                                  f 2.05(  2.79%)
  64. (0.00000) RY (11) N  3            s(  0.00%)p 1.00(  0.17%)d99.99( 99.83%)
                                                  f 0.00(  0.00%)
  65. (0.00000) RY (12) N  3            s(  0.19%)p46.75(  8.65%)d99.99( 90.93%)
                                                  f 1.27(  0.23%)
  66. (0.00000) RY (13) N  3            s(  0.00%)p 1.00(  0.02%)d99.99( 99.98%)
                                                  f 0.00(  0.00%)
  67. (0.00000) RY (14) N  3            s(  1.05%)p 9.99( 10.45%)d84.51( 88.45%)
                                                  f 0.04(  0.04%)
  68. (0.00000) RY (15) N  3            s(  0.00%)p 1.00(  0.02%)d99.99( 99.98%)
                                                  f 0.00(  0.00%)
  69. (0.00000) RY (16) N  3            s(  0.00%)p 1.00(  2.16%)d45.33( 97.84%)
  70. (0.00000) RY (17) N  3            s(  0.00%)p 1.00(  0.14%)d99.99( 99.86%)
                                                  f 0.00(  0.00%)
  71. (0.00000) RY (18) N  3            s( 33.36%)p 0.90( 30.09%)d 0.89( 29.71%)
                                                  f 0.21(  6.84%)
  72. (0.00000) RY (19) N  3            s( 32.21%)p 0.60( 19.47%)d 1.48( 47.72%)
                                                  f 0.02(  0.61%)
  73. (0.00000) RY (20) N  3            s(  1.99%)p 2.13(  4.23%)d 3.04(  6.04%)
                                                  f44.20( 87.74%)
  74. (0.00000) RY (21) N  3            s(  0.00%)p 1.00(  0.04%)d 0.12(  0.00%)
                                                  f99.99( 99.95%)
  75. (0.00000) RY (22) N  3            s(  0.00%)p 1.00(  0.04%)d 0.12(  0.00%)
                                                  f99.99( 99.95%)
  76. (0.00000) RY (23) N  3            s(  0.00%)p 1.00(  0.03%)d 0.11(  0.00%)
                                                  f99.99( 99.97%)
  77. (0.00000) RY (24) N  3            s(  0.00%)p 1.00(  0.03%)d 0.11(  0.00%)
                                                  f99.99( 99.97%)
  78. (0.00000) RY (25) N  3            s(  0.00%)p 0.00(  0.00%)d 0.00(  0.00%)
                                                  f 1.00(100.00%)
  79. (0.00000) RY (26) N  3            s( 27.57%)p 0.73( 20.10%)d 0.76( 20.94%)
                                                  f 1.14( 31.39%)
  80. (0.00053) RY ( 1) H  4            s( 33.90%)p 1.90( 64.54%)d 0.05(  1.56%)
                                         0.0143  0.5730 -0.1021  0.0000  0.0000
                                        -0.2381  0.0380  0.2759  0.7150  0.0000
                                         0.0000  0.1066 -0.0567 -0.0313
  81. (0.00023) RY ( 2) H  4            s( 34.06%)p 1.84( 62.56%)d 0.10(  3.39%)
                                        -0.0012  0.4740  0.3404  0.0000  0.0000
                                         0.3494  0.4074  0.4310 -0.3895  0.0000
                                         0.0000  0.0198  0.1453  0.1112
  82. (0.00011) RY ( 3) H  4            s(  0.00%)p 1.00( 92.60%)d 0.08(  7.40%)
                                         0.0000  0.0000  0.0000 -0.6186  0.7371
                                         0.0000  0.0000  0.0000  0.0000  0.2561
                                        -0.0915  0.0000  0.0000  0.0000
  83. (0.00004) RY ( 4) H  4            s(  0.00%)p 1.00( 99.82%)d 0.00(  0.18%)
  84. (0.00003) RY ( 5) H  4            s( 47.38%)p 1.02( 48.11%)d 0.10(  4.51%)
  85. (0.00001) RY ( 6) H  4            s( 48.34%)p 0.98( 47.43%)d 0.09(  4.22%)
  86. (0.00000) RY ( 7) H  4            s(  1.67%)p32.09( 53.68%)d26.69( 44.64%)
  87. (0.00000) RY ( 8) H  4            s( 18.43%)p 2.06( 38.01%)d 2.36( 43.56%)
  88. (0.00000) RY ( 9) H  4            s(  0.00%)p 1.00(  6.77%)d13.77( 93.23%)
  89. (0.00000) RY (10) H  4            s(  0.00%)p 1.00(  0.81%)d99.99( 99.19%)
  90. (0.00000) RY (11) H  4            s(  0.60%)p80.74( 48.28%)d85.50( 51.12%)
  91. (0.00000) RY (12) H  4            s( 12.67%)p 1.77( 22.46%)d 5.12( 64.88%)
  92. (0.00000) RY (13) H  4            s(  3.12%)p 4.73( 14.77%)d26.27( 82.11%)
  93. (0.00053) RY ( 1) H  5            s( 33.90%)p 1.90( 64.54%)d 0.05(  1.56%)
                                         0.0143  0.5730 -0.1021  0.2062 -0.0329
                                         0.1190 -0.0190  0.2759  0.7150  0.0491
                                        -0.0924 -0.0533  0.0283 -0.0313
  94. (0.00023) RY ( 2) H  5            s( 34.06%)p 1.84( 62.56%)d 0.10(  3.39%)
                                        -0.0012  0.4740  0.3404 -0.3026 -0.3529
                                        -0.1747 -0.2037  0.4310 -0.3895 -0.1258
                                        -0.0172 -0.0099 -0.0726  0.1112
  95. (0.00011) RY ( 3) H  5            s(  0.00%)p 1.00( 92.60%)d 0.08(  7.40%)
                                         0.0000  0.0000  0.0000  0.3093 -0.3685
                                        -0.5358  0.6383  0.0000  0.0000 -0.1281
                                         0.0457 -0.0792  0.2218  0.0000
  96. (0.00004) RY ( 4) H  5            s(  0.00%)p 1.00( 99.82%)d 0.00(  0.18%)
  97. (0.00003) RY ( 5) H  5            s( 47.38%)p 1.02( 48.11%)d 0.10(  4.51%)
  98. (0.00001) RY ( 6) H  5            s( 48.34%)p 0.98( 47.43%)d 0.09(  4.22%)
  99. (0.00000) RY ( 7) H  5            s(  1.67%)p32.09( 53.68%)d26.69( 44.64%)
 100. (0.00000) RY ( 8) H  5            s( 18.43%)p 2.06( 38.01%)d 2.36( 43.56%)
 101. (0.00000) RY ( 9) H  5            s( 12.67%)p 1.77( 22.46%)d 5.12( 64.88%)
 102. (0.00000) RY (10) H  5            s(  0.10%)p99.99( 31.46%)d99.99( 68.44%)
 103. (0.00000) RY (11) H  5            s(  0.02%)p99.99(  6.64%)d99.99( 93.34%)
 104. (0.00000) RY (12) H  5            s(  0.01%)p 1.00(  8.45%)d10.83( 91.54%)
 105. (0.00000) RY (13) H  5            s(  3.60%)p 6.69( 24.07%)d20.09( 72.33%)
 106. (0.00053) RY ( 1) H  6            s( 33.90%)p 1.90( 64.54%)d 0.05(  1.56%)
                                         0.0143  0.5730 -0.1021 -0.2062  0.0329
                                         0.1190 -0.0190  0.2759  0.7150 -0.0491
                                         0.0924 -0.0533  0.0283 -0.0313
 107. (0.00023) RY ( 2) H  6            s( 34.06%)p 1.84( 62.56%)d 0.10(  3.39%)
                                        -0.0012  0.4740  0.3404  0.3026  0.3529
                                        -0.1747 -0.2037  0.4310 -0.3895  0.1258
                                         0.0172 -0.0099 -0.0726  0.1112
 108. (0.00011) RY ( 3) H  6            s(  0.00%)p 1.00( 92.60%)d 0.08(  7.40%)
                                         0.0000  0.0000  0.0000 -0.3093  0.3685
                                        -0.5358  0.6383  0.0000  0.0000  0.1281
                                        -0.0457 -0.0792  0.2218  0.0000
 109. (0.00004) RY ( 4) H  6            s(  0.00%)p 1.00( 99.82%)d 0.00(  0.18%)
 110. (0.00003) RY ( 5) H  6            s( 47.38%)p 1.02( 48.11%)d 0.10(  4.51%)
 111. (0.00001) RY ( 6) H  6            s( 48.34%)p 0.98( 47.43%)d 0.09(  4.22%)
 112. (0.00000) RY ( 7) H  6            s(  1.67%)p32.09( 53.68%)d26.69( 44.64%)
 113. (0.00000) RY ( 8) H  6            s( 18.43%)p 2.06( 38.01%)d 2.36( 43.56%)
 114. (0.00000) RY ( 9) H  6            s( 12.67%)p 1.77( 22.46%)d 5.12( 64.88%)
 115. (0.00000) RY (10) H  6            s(  0.10%)p99.99( 31.46%)d99.99( 68.44%)
 116. (0.00000) RY (11) H  6            s(  0.02%)p99.99(  6.64%)d99.99( 93.34%)
 117. (0.00000) RY (12) H  6            s(  0.01%)p 1.00(  8.45%)d10.83( 91.54%)
 118. (0.00000) RY (13) H  6            s(  3.60%)p 6.69( 24.07%)d20.09( 72.33%)


 NHO DIRECTIONALITY AND BOND BENDING (deviation from line of nuclear centers at
                                      the position of maximum hybrid amplitude)

         [Thresholds for printing:  angular deviation  >  1.0 degree]
                                    p- or d-character  > 25.0%
                                    orbital occupancy  >  0.10e

                        Line of Centers        Hybrid 1             Hybrid 2
                        ---------------  -------------------  ------------------
           NBO            Theta   Phi    Theta   Phi    Dev   Theta   Phi    Dev
 ===============================================================================
   3. LP ( 1) F  1          --     --      0.0    0.0   --      --     --    --
   4. LP ( 2) F  1          --     --     90.3  180.0   --      --     --    --
   5. LP ( 3) F  1          --     --     90.3  270.0   --      --     --    --
   8. LP ( 2) N  3          --     --     90.8  359.6   --      --     --    --
   9. LP ( 3) N  3          --     --     90.8  270.0   --      --     --    --


 SECOND ORDER PERTURBATION THEORY ANALYSIS OF FOCK MATRIX IN NBO BASIS

     Threshold for printing:   0.50 kcal/mol
    (Intermolecular threshold: 0.05 kcal/mol)
                                                          E(2) E(NL)-E(L) F(L,NL)
      Donor (L) NBO              Acceptor (NL) NBO      kcal/mol   a.u.    a.u.
 ===============================================================================

 within unit  1
    6. LP ( 4) F  1            15. RY ( 1) F  1            2.19    2.59   0.067
    6. LP ( 4) F  1            19. RY ( 5) F  1            0.85    2.35   0.040

 from unit  1 to unit  2
    3. LP ( 1) F  1            11. LV ( 1) H  2           22.63    0.99   0.133
    3. LP ( 1) F  1            41. RY ( 1) H  2            2.60    3.01   0.079
    3. LP ( 1) F  1            44. RY ( 4) H  2            0.14    4.86   0.023
    4. LP ( 2) F  1            42. RY ( 2) H  2            1.39    2.04   0.048
    4. LP ( 2) F  1            46. RY ( 6) H  2            0.32    3.66   0.030
    4. LP ( 2) F  1            51. RY (11) H  2            0.07    4.58   0.016
    5. LP ( 3) F  1            43. RY ( 3) H  2            1.39    2.04   0.048
    5. LP ( 3) F  1            45. RY ( 5) H  2            0.32    3.66   0.030
    5. LP ( 3) F  1            52. RY (12) H  2            0.07    4.58   0.016
    6. LP ( 4) F  1            11. LV ( 1) H  2          399.60    0.68   0.466
    6. LP ( 4) F  1            41. RY ( 1) H  2           11.89    2.70   0.160
    6. LP ( 4) F  1            44. RY ( 4) H  2            0.98    4.56   0.060
    6. LP ( 4) F  1            47. RY ( 7) H  2            0.20    2.53   0.020
    6. LP ( 4) F  1            48. RY ( 8) H  2            1.54    3.45   0.065
    6. LP ( 4) F  1            49. RY ( 9) H  2            0.56    4.71   0.046

 from unit  1 to unit  3
    3. LP ( 1) F  1            57. RY ( 4) N  3            0.14    2.40   0.016
    4. LP ( 2) F  1            54. RY ( 1) N  3            0.19    0.93   0.012
    5. LP ( 3) F  1            55. RY ( 2) N  3            0.19    0.93   0.012
    6. LP ( 4) F  1            57. RY ( 4) N  3            1.05    2.10   0.042

 from unit  1 to unit  4
    5. LP ( 3) F  1            12. LV ( 1) H  4            0.05    0.41   0.004

 from unit  1 to unit  5
       None above threshold

 from unit  1 to unit  6
       None above threshold

 from unit  2 to unit  1
       None above threshold

 within unit  2
       None above threshold

 from unit  2 to unit  3
       None above threshold

 from unit  2 to unit  4
       None above threshold

 from unit  2 to unit  5
       None above threshold

 from unit  2 to unit  6
       None above threshold

 from unit  3 to unit  1
    7. LP ( 1) N  3            15. RY ( 1) F  1            0.13    2.42   0.016
    7. LP ( 1) N  3            16. RY ( 2) F  1            0.06    4.20   0.014

 from unit  3 to unit  2
    7. LP ( 1) N  3            11. LV ( 1) H  2           58.38    0.51   0.154
    7. LP ( 1) N  3            44. RY ( 4) H  2            0.79    4.39   0.053
    7. LP ( 1) N  3            47. RY ( 7) H  2            0.39    2.36   0.027
    7. LP ( 1) N  3            48. RY ( 8) H  2            0.11    3.28   0.017
    8. LP ( 2) N  3            46. RY ( 6) H  2            0.15    3.54   0.020
    9. LP ( 3) N  3            45. RY ( 5) H  2            0.15    3.54   0.020
   10. LP ( 4) N  3            11. LV ( 1) H  2            0.45    0.63   0.015
   10. LP ( 4) N  3            47. RY ( 7) H  2            0.07    2.48   0.012
   10. LP ( 4) N  3            48. RY ( 8) H  2            0.07    3.40   0.014

 within unit  3
    8. LP ( 2) N  3            54. RY ( 1) N  3            9.81    0.81   0.080
    8. LP ( 2) N  3            63. RY (10) N  3            3.84    2.56   0.089
    8. LP ( 2) N  3            64. RY (11) N  3            0.67    5.47   0.054
    8. LP ( 2) N  3            65. RY (12) N  3            1.23    1.62   0.040
    8. LP ( 2) N  3            77. RY (24) N  3            0.69    5.07   0.053
    9. LP ( 3) N  3            55. RY ( 2) N  3            9.81    0.81   0.080
    9. LP ( 3) N  3            67. RY (14) N  3            1.29    1.52   0.039
    9. LP ( 3) N  3            69. RY (16) N  3            6.33    1.86   0.097
    9. LP ( 3) N  3            70. RY (17) N  3            0.66    5.47   0.053
    9. LP ( 3) N  3            76. RY (23) N  3            0.69    5.07   0.053
   10. LP ( 4) N  3            56. RY ( 3) N  3            3.06    1.22   0.055
   10. LP ( 4) N  3            58. RY ( 5) N  3            0.89    7.52   0.073
   10. LP ( 4) N  3            61. RY ( 8) N  3            0.53    3.55   0.039
   10. LP ( 4) N  3            79. RY (26) N  3            1.27    9.17   0.096

 from unit  3 to unit  4
    7. LP ( 1) N  3            12. LV ( 1) H  4            6.39    0.42   0.046
    7. LP ( 1) N  3            80. RY ( 1) H  4            0.87    1.81   0.035
    7. LP ( 1) N  3            84. RY ( 5) H  4            0.11    2.20   0.014
    8. LP ( 2) N  3            82. RY ( 3) H  4            0.30    4.10   0.032
    8. LP ( 2) N  3            83. RY ( 4) H  4            0.18    1.37   0.014
    8. LP ( 2) N  3            88. RY ( 9) H  4            0.09    4.61   0.018
    9. LP ( 3) N  3            12. LV ( 1) H  4          480.17    0.30   0.337
    9. LP ( 3) N  3            80. RY ( 1) H  4            0.16    1.69   0.015
    9. LP ( 3) N  3            81. RY ( 2) H  4            6.53    2.83   0.121
    9. LP ( 3) N  3            84. RY ( 5) H  4            7.52    2.08   0.112
    9. LP ( 3) N  3            85. RY ( 6) H  4            7.14    2.12   0.110
    9. LP ( 3) N  3            86. RY ( 7) H  4            0.06    4.36   0.015
    9. LP ( 3) N  3            87. RY ( 8) H  4            0.26    2.85   0.024
    9. LP ( 3) N  3            90. RY (11) H  4            0.92    4.60   0.058
    9. LP ( 3) N  3            91. RY (12) H  4            0.25    3.28   0.026
   10. LP ( 4) N  3            12. LV ( 1) H  4          256.45    0.54   0.332
   10. LP ( 4) N  3            80. RY ( 1) H  4            0.17    1.93   0.016
   10. LP ( 4) N  3            81. RY ( 2) H  4            1.06    3.07   0.051
   10. LP ( 4) N  3            84. RY ( 5) H  4            6.01    2.32   0.106
   10. LP ( 4) N  3            85. RY ( 6) H  4            3.09    2.36   0.076
   10. LP ( 4) N  3            90. RY (11) H  4            0.25    4.84   0.031

 from unit  3 to unit  5
    7. LP ( 1) N  3            13. LV ( 1) H  5            6.39    0.42   0.046
    7. LP ( 1) N  3            93. RY ( 1) H  5            0.87    1.81   0.035
    7. LP ( 1) N  3            97. RY ( 5) H  5            0.11    2.20   0.014
    8. LP ( 2) N  3            13. LV ( 1) H  5          360.11    0.30   0.292
    8. LP ( 2) N  3            93. RY ( 1) H  5            0.12    1.69   0.013
    8. LP ( 2) N  3            94. RY ( 2) H  5            4.90    2.83   0.105
    8. LP ( 2) N  3            95. RY ( 3) H  5            0.08    4.10   0.016
    8. LP ( 2) N  3            97. RY ( 5) H  5            5.64    2.08   0.097
    8. LP ( 2) N  3            98. RY ( 6) H  5            5.35    2.12   0.095
    8. LP ( 2) N  3           100. RY ( 8) H  5            0.19    2.85   0.021
    8. LP ( 2) N  3           101. RY ( 9) H  5            0.19    3.28   0.022
    8. LP ( 2) N  3           102. RY (10) H  5            0.36    4.45   0.036
    8. LP ( 2) N  3           103. RY (11) H  5            0.11    4.02   0.019
    8. LP ( 2) N  3           104. RY (12) H  5            0.10    4.62   0.019
    8. LP ( 2) N  3           105. RY (13) H  5            0.18    4.25   0.025
    9. LP ( 3) N  3            13. LV ( 1) H  5          120.03    0.30   0.169
    9. LP ( 3) N  3            94. RY ( 2) H  5            1.63    2.83   0.061
    9. LP ( 3) N  3            95. RY ( 3) H  5            0.23    4.10   0.027
    9. LP ( 3) N  3            96. RY ( 4) H  5            0.14    1.37   0.012
    9. LP ( 3) N  3            97. RY ( 5) H  5            1.88    2.08   0.056
    9. LP ( 3) N  3            98. RY ( 6) H  5            1.78    2.12   0.055
    9. LP ( 3) N  3           100. RY ( 8) H  5            0.06    2.85   0.012
    9. LP ( 3) N  3           101. RY ( 9) H  5            0.06    3.28   0.013
    9. LP ( 3) N  3           102. RY (10) H  5            0.23    4.45   0.028
    9. LP ( 3) N  3           105. RY (13) H  5            0.06    4.25   0.014
   10. LP ( 4) N  3            13. LV ( 1) H  5          256.47    0.54   0.332
   10. LP ( 4) N  3            93. RY ( 1) H  5            0.17    1.93   0.016
   10. LP ( 4) N  3            94. RY ( 2) H  5            1.06    3.07   0.051
   10. LP ( 4) N  3            97. RY ( 5) H  5            6.01    2.32   0.106
   10. LP ( 4) N  3            98. RY ( 6) H  5            3.09    2.36   0.076
   10. LP ( 4) N  3           102. RY (10) H  5            0.19    4.70   0.027

 from unit  3 to unit  6
    7. LP ( 1) N  3            14. LV ( 1) H  6            6.39    0.42   0.046
    7. LP ( 1) N  3           106. RY ( 1) H  6            0.87    1.81   0.035
    7. LP ( 1) N  3           110. RY ( 5) H  6            0.11    2.20   0.014
    8. LP ( 2) N  3            14. LV ( 1) H  6          360.11    0.30   0.292
    8. LP ( 2) N  3           106. RY ( 1) H  6            0.12    1.69   0.013
    8. LP ( 2) N  3           107. RY ( 2) H  6            4.90    2.83   0.105
    8. LP ( 2) N  3           108. RY ( 3) H  6            0.08    4.10   0.016
    8. LP ( 2) N  3           110. RY ( 5) H  6            5.64    2.08   0.097
    8. LP ( 2) N  3           111. RY ( 6) H  6            5.35    2.12   0.095
    8. LP ( 2) N  3           113. RY ( 8) H  6            0.19    2.85   0.021
    8. LP ( 2) N  3           114. RY ( 9) H  6            0.19    3.28   0.022
    8. LP ( 2) N  3           115. RY (10) H  6            0.36    4.45   0.036
    8. LP ( 2) N  3           116. RY (11) H  6            0.11    4.02   0.019
    8. LP ( 2) N  3           117. RY (12) H  6            0.10    4.62   0.019
    8. LP ( 2) N  3           118. RY (13) H  6            0.18    4.25   0.025
    9. LP ( 3) N  3            14. LV ( 1) H  6          120.03    0.30   0.169
    9. LP ( 3) N  3           107. RY ( 2) H  6            1.63    2.83   0.061
    9. LP ( 3) N  3           108. RY ( 3) H  6            0.23    4.10   0.027
    9. LP ( 3) N  3           109. RY ( 4) H  6            0.14    1.37   0.012
    9. LP ( 3) N  3           110. RY ( 5) H  6            1.88    2.08   0.056
    9. LP ( 3) N  3           111. RY ( 6) H  6            1.78    2.12   0.055
    9. LP ( 3) N  3           113. RY ( 8) H  6            0.06    2.85   0.012
    9. LP ( 3) N  3           114. RY ( 9) H  6            0.06    3.28   0.013
    9. LP ( 3) N  3           115. RY (10) H  6            0.23    4.45   0.028
    9. LP ( 3) N  3           118. RY (13) H  6            0.06    4.25   0.014
   10. LP ( 4) N  3            14. LV ( 1) H  6          256.47    0.54   0.332
   10. LP ( 4) N  3           106. RY ( 1) H  6            0.17    1.93   0.016
   10. LP ( 4) N  3           107. RY ( 2) H  6            1.06    3.07   0.051
   10. LP ( 4) N  3           110. RY ( 5) H  6            6.01    2.32   0.106
   10. LP ( 4) N  3           111. RY ( 6) H  6            3.09    2.36   0.076
   10. LP ( 4) N  3           115. RY (10) H  6            0.19    4.70   0.027

 from unit  4 to unit  1
       None above threshold

 from unit  4 to unit  2
       None above threshold

 from unit  4 to unit  3
       None above threshold

 within unit  4
       None above threshold

 from unit  4 to unit  5
       None above threshold

 from unit  4 to unit  6
       None above threshold

 from unit  5 to unit  1
       None above threshold

 from unit  5 to unit  2
       None above threshold

 from unit  5 to unit  3
       None above threshold

 from unit  5 to unit  4
       None above threshold

 within unit  5
       None above threshold

 from unit  5 to unit  6
       None above threshold

 from unit  6 to unit  1
       None above threshold

 from unit  6 to unit  2
       None above threshold

 from unit  6 to unit  3
       None above threshold

 from unit  6 to unit  4
       None above threshold

 from unit  6 to unit  5
       None above threshold

 within unit  6
       None above threshold


 NATURAL BOND ORBITALS (Summary):

                                                     Principal Delocalizations
           NBO                 Occupancy    Energy   (geminal,vicinal,remote)
 ===============================================================================
 Molecular unit  1  (F)
 ------ Lewis --------------------------------------
    1. CR ( 1) F  1             2.00000   -24.59755
    3. LP ( 1) F  1             1.99785    -0.82858  11(r),41(r),57(r),44(r)
    4. LP ( 2) F  1             1.99753    -0.34848  42(r),46(r),54(r),51(r)
    5. LP ( 3) F  1             1.99753    -0.34848  43(r),45(r),55(r),52(r)
                                                     12(r)
    6. LP ( 4) F  1             1.62346    -0.52647  11(r),41(r),15(g),48(r)
                                                     57(r),44(r),19(g),49(r)
                                                     47(r)
 ------ non-Lewis ----------------------------------
   15. RY ( 1) F  1             0.00015     2.06803
   16. RY ( 2) F  1             0.00001     3.84790
   17. RY ( 3) F  1             0.00001     1.78976
   18. RY ( 4) F  1             0.00001     1.78974
   19. RY ( 5) F  1             0.00000     1.81907
   20. RY ( 6) F  1             0.00000    41.97920
   21. RY ( 7) F  1             0.00000     2.94773
   22. RY ( 8) F  1             0.00000     2.94773
   23. RY ( 9) F  1             0.00000     4.37959
   24. RY (10) F  1             0.00000     2.03257
   25. RY (11) F  1             0.00000     8.32518
   26. RY (12) F  1             0.00000     1.63730
   27. RY (13) F  1             0.00000     8.51868
   28. RY (14) F  1             0.00000     1.63732
   29. RY (15) F  1             0.00000     8.51857
   30. RY (16) F  1             0.00000     2.03267
   31. RY (17) F  1             0.00000     8.32519
   32. RY (18) F  1             0.00000     3.46786
   33. RY (19) F  1             0.00000     8.51125
   34. RY (20) F  1             0.00000    20.38259
   35. RY (21) F  1             0.00000     7.64057
   36. RY (22) F  1             0.00000     7.64057
   37. RY (23) F  1             0.00000     7.05517
   38. RY (24) F  1             0.00000     7.05517
   39. RY (25) F  1             0.00000     6.94052
   40. RY (26) F  1             0.00000     6.94052
          -------------------------------
                 Total Lewis    9.61637  ( 99.9983%)
           Valence non-Lewis    0.00000  (  0.0000%)
           Rydberg non-Lewis    0.00017  (  0.0017%)
          -------------------------------
               Total unit  1    9.61654  (100.0000%)
              Charge unit  1   -0.61654

 Molecular unit  2  (H)
 ------ Lewis --------------------------------------
 ------ non-Lewis ----------------------------------
   11. LV ( 1) H  2             0.44810     0.15661
   41. RY ( 1) H  2             0.00269     2.17657
   42. RY ( 2) H  2             0.00116     1.69619
   43. RY ( 3) H  2             0.00116     1.69619
   44. RY ( 4) H  2             0.00053     4.03226
   45. RY ( 5) H  2             0.00006     3.30816
   46. RY ( 6) H  2             0.00006     3.30816
   47. RY ( 7) H  2             0.00001     2.00804
   48. RY ( 8) H  2             0.00000     2.92308
   49. RY ( 9) H  2             0.00000     4.18096
   50. RY (10) H  2             0.00000     3.32077
   51. RY (11) H  2             0.00000     4.23452
   52. RY (12) H  2             0.00000     4.23449
   53. RY (13) H  2             0.00000     3.32080
          -------------------------------
                 Total Lewis    0.00000  (  0.0000%)
           Valence non-Lewis    0.44810  ( 98.7488%)
           Rydberg non-Lewis    0.00568  (  1.2512%)
          -------------------------------
               Total unit  2    0.45377  (100.0000%)
              Charge unit  2    0.54623

 Molecular unit  3  (N)
 ------ Lewis --------------------------------------
    2. CR ( 1) N  3             1.99999   -14.34325
    7. LP ( 1) N  3             1.92491    -0.35436  11(r),12(r),13(r),14(r)
                                                     80(r),93(r),106(r),44(r)
                                                     47(r),15(r),48(r),84(r)
                                                     97(r),110(r),16(r)
    8. LP ( 2) N  3             1.37624    -0.23219  13(r),14(r),54(g),97(r)
                                                     110(r),98(r),111(r),94(r)
                                                     107(r),63(g),65(g),77(g)
                                                     64(g),102(r),115(r),82(r)
                                                     100(r),113(r),101(r),114(r)
                                                     105(r),118(r),83(r),46(r)
                                                     93(r),106(r),103(r),116(r)
                                                     104(r),117(r),88(r),95(r)
                                                     108(r)
    9. LP ( 3) N  3             1.37624    -0.23219  12(r),14(r),13(r),55(g)
                                                     84(r),85(r),81(r),69(g)
                                                     97(r),110(r),98(r),111(r)
                                                     94(r),107(r),67(g),90(r)
                                                     76(g),70(g),87(r),91(r)
                                                     95(r),108(r),102(r),115(r)
                                                     80(r),45(r),96(r),109(r)
                                                     100(r),113(r),101(r),114(r)
                                                     86(r),105(r),118(r)
   10. LP ( 4) N  3             1.37312    -0.47411  13(r),14(r),12(r),97(r)
                                                     110(r),84(r),98(r),111(r)
                                                     85(r),56(g),79(g),94(r)
                                                     107(r),81(r),58(g),61(g)
                                                     11(r),90(r),102(r),115(r)
                                                     80(r),93(r),106(r),47(r)
                                                     48(r)
 ------ non-Lewis ----------------------------------
   54. RY ( 1) N  3             0.00078     0.58017
   55. RY ( 2) N  3             0.00078     0.58018
   56. RY ( 3) N  3             0.00046     0.74992
   57. RY ( 4) N  3             0.00002     1.57629
   58. RY ( 5) N  3             0.00000     7.04316
   59. RY ( 6) N  3             0.00000     2.83837
   60. RY ( 7) N  3             0.00000    13.57251
   61. RY ( 8) N  3             0.00000     3.07541
   62. RY ( 9) N  3             0.00000     2.72848
   63. RY (10) N  3             0.00000     2.32977
   64. RY (11) N  3             0.00000     5.23418
   65. RY (12) N  3             0.00000     1.38747
   66. RY (13) N  3             0.00000     5.05630
   67. RY (14) N  3             0.00000     1.28996
   68. RY (15) N  3             0.00000     5.05616
   69. RY (16) N  3             0.00000     1.62627
   70. RY (17) N  3             0.00000     5.23372
   71. RY (18) N  3             0.00000     4.22716
   72. RY (19) N  3             0.00000    10.61466
   73. RY (20) N  3             0.00000     4.74324
   74. RY (21) N  3             0.00000     4.43562
   75. RY (22) N  3             0.00000     4.43562
   76. RY (23) N  3             0.00000     4.83497
   77. RY (24) N  3             0.00000     4.83498
   78. RY (25) N  3             0.00000     4.69427
   79. RY (26) N  3             0.00000     8.69763
          -------------------------------
                 Total Lewis    8.05049  ( 99.9745%)
           Valence non-Lewis    0.00000  (  0.0000%)
           Rydberg non-Lewis    0.00205  (  0.0255%)
          -------------------------------
               Total unit  3    8.05255  (100.0000%)
              Charge unit  3   -1.05255

 Molecular unit  4  (H)
 ------ Lewis --------------------------------------
 ------ non-Lewis ----------------------------------
   12. LV ( 1) H  4             0.62474     0.06478
   80. RY ( 1) H  4             0.00053     1.45840
   81. RY ( 2) H  4             0.00023     2.59991
   82. RY ( 3) H  4             0.00011     3.86736
   83. RY ( 4) H  4             0.00004     1.13696
   84. RY ( 5) H  4             0.00003     1.84925
   85. RY ( 6) H  4             0.00001     1.88532
   86. RY ( 7) H  4             0.00000     4.13110
   87. RY ( 8) H  4             0.00000     2.62222
   88. RY ( 9) H  4             0.00000     4.37988
   89. RY (10) H  4             0.00000     3.61393
   90. RY (11) H  4             0.00000     4.36475
   91. RY (12) H  4             0.00000     3.04722
   92. RY (13) H  4             0.00000     4.05004
          -------------------------------
                 Total Lewis    0.00000  (  0.0000%)
           Valence non-Lewis    0.62474  ( 99.8449%)
           Rydberg non-Lewis    0.00097  (  0.1551%)
          -------------------------------
               Total unit  4    0.62571  (100.0000%)
              Charge unit  4    0.37429

 Molecular unit  5  (H)
 ------ Lewis --------------------------------------
 ------ non-Lewis ----------------------------------
   13. LV ( 1) H  5             0.62474     0.06478
   93. RY ( 1) H  5             0.00053     1.45840
   94. RY ( 2) H  5             0.00023     2.59991
   95. RY ( 3) H  5             0.00011     3.86736
   96. RY ( 4) H  5             0.00004     1.13696
   97. RY ( 5) H  5             0.00003     1.84923
   98. RY ( 6) H  5             0.00001     1.88532
   99. RY ( 7) H  5             0.00000     4.13110
  100. RY ( 8) H  5             0.00000     2.62222
  101. RY ( 9) H  5             0.00000     3.04723
  102. RY (10) H  5             0.00000     4.22151
  103. RY (11) H  5             0.00000     3.78524
  104. RY (12) H  5             0.00000     4.38439
  105. RY (13) H  5             0.00000     4.01747
          -------------------------------
                 Total Lewis    0.00000  (  0.0000%)
           Valence non-Lewis    0.62474  ( 99.8449%)
           Rydberg non-Lewis    0.00097  (  0.1551%)
          -------------------------------
               Total unit  5    0.62571  (100.0000%)
              Charge unit  5    0.37429

 Molecular unit  6  (H)
 ------ Lewis --------------------------------------
 ------ non-Lewis ----------------------------------
   14. LV ( 1) H  6             0.62474     0.06478
  106. RY ( 1) H  6             0.00053     1.45840
  107. RY ( 2) H  6             0.00023     2.59991
  108. RY ( 3) H  6             0.00011     3.86736
  109. RY ( 4) H  6             0.00004     1.13696
  110. RY ( 5) H  6             0.00003     1.84923
  111. RY ( 6) H  6             0.00001     1.88532
  112. RY ( 7) H  6             0.00000     4.13110
  113. RY ( 8) H  6             0.00000     2.62222
  114. RY ( 9) H  6             0.00000     3.04723
  115. RY (10) H  6             0.00000     4.22151
  116. RY (11) H  6             0.00000     3.78524
  117. RY (12) H  6             0.00000     4.38439
  118. RY (13) H  6             0.00000     4.01747
          -------------------------------
                 Total Lewis    0.00000  (  0.0000%)
           Valence non-Lewis    0.62474  ( 99.8449%)
           Rydberg non-Lewis    0.00097  (  0.1551%)
          -------------------------------
               Total unit  6    0.62571  (100.0000%)
              Charge unit  6    0.37429

 $CHOOSE
   LONE 1 4 3 4 END
 $END

 NBO analysis completed in 0.17 CPU seconds (0 wall seconds)
 Maximum scratch memory used by NBO was 584456 words (4.46 MB)
 Maximum scratch memory used by G16NBO was 29801 words (0.23 MB)

 Opening RunExU unformatted file "/tmp/NH3_HF-32869.tmp/Gau-135147.EUF"
 Read unf file /tmp/NH3_HF-32869.tmp/Gau-135147.EUF:
 Label Gaussian matrix elements                                         IVers= 1 NLab= 2 Version=ES64L-G16RevB.01
 Title NH3_HF                                                          
 NAtoms=     6 NBasis=   118 NBsUse=   118 ICharg=     0 Multip=     1 NE=    20 Len12L=8 Len4L=8 IOpCl= 0 ICGU= -1
 GAUSSIAN SCALARS                    NI= 1 NR= 1 NTot=       1 LenBuf=    2 NRI=1 N=    1000
 NPA CHARGES                         NI= 0 NR= 1 NTot=       6 LenBuf= 2048 NRI=1 N=       6
 Recovered energy= -157.102662275     dipole=      0.000000000000     -0.000000288219     -1.869344044148
 1\1\GINC-CU04\SP\RB3LYP\def2TZVPP\F1H4N1\WANG\24-Jan-2005\0\\# B3LYP/D
 ef2TZVPP fchk=All Pop=NBO6Read SCFCYC=250 NOSYMM\\NH3_HF\\0,1\F,0,0.,0
 .,1.425757\H,0,0.,0.,0.467071\N,0,0.,0.,-1.220073\H,0,0.,0.944729,-1.5
 86125\H,0,-0.818159,-0.472365,-1.586125\H,0,0.818159,-0.472365,-1.5861
 25\\Version=ES64L-G16RevB.01\HF=-157.1026623\RMSD=3.352e-09\Dipole=0.,
 -0.0000003,-1.869344\Quadrupole=0.4295206,0.4295238,-0.8590444,0.,0.,0
 .0000014\PG=C03 [C3(N1H1F1),X(H3)]\\@


 THE WORLD OF CHEMICAL REACTIONS IS LIKE A STAGE,
 ON WHICH SCENE AFTER SCENE IS CEASELESSLY PLAYED.
 THE ACTORS ON IT ARE THE ELEMENTS.
   -- CLEMENS WINKLER   BER. 30,13(1897)
 (DISCOVERER OF GERMANIUM, FEB 6, 1886)
 Job cpu time:       0 days  0 hours  1 minutes  0.6 seconds.
 Elapsed time:       0 days  0 hours  0 minutes  2.7 seconds.
 File lengths (MBytes):  RWF=     11 Int=      0 D2E=      0 Chk=      2 Scr=      1
 Normal termination of Gaussian 16 at Mon Jan 24 18:18:06 2005.
