optimized                                                               
SP        RB3LYP                                                      def2TZVPP           
Number of atoms                            I               12
Info1-9                                    I   N=           9
          24          23           0           0           0         110
           1          18        -502
Charge                                     I                0
Multiplicity                               I                1
Number of electrons                        I               42
Number of alpha electrons                  I               21
Number of beta electrons                   I               21
Number of basis functions                  I              270
Number of independent functions            I              270
Number of point charges in /Mol/           I                0
Number of translation vectors              I                0
Atomic numbers                             I   N=          12
           6           6           6           6           6           6
           1           1           1           1           1           1
Nuclear charges                            R   N=          12
  6.00000000E+00  6.00000000E+00  6.00000000E+00  6.00000000E+00  6.00000000E+00
  6.00000000E+00  1.00000000E+00  1.00000000E+00  1.00000000E+00  1.00000000E+00
  1.00000000E+00  1.00000000E+00
Current cartesian coordinates              R   N=          36
  0.00000000E+00  2.62807993E+00  0.00000000E+00 -2.27598426E+00  1.31403996E+00
  0.00000000E+00 -2.27598426E+00 -1.31403996E+00  0.00000000E+00  0.00000000E+00
 -2.62807993E+00  0.00000000E+00  2.27598426E+00 -1.31403996E+00  0.00000000E+00
  2.27598426E+00  1.31403996E+00  0.00000000E+00  0.00000000E+00  4.67300549E+00
  0.00000000E+00 -4.04694111E+00 -2.33650274E+00  0.00000000E+00  0.00000000E+00
 -4.67300549E+00  0.00000000E+00  4.04694111E+00 -2.33650274E+00  0.00000000E+00
  4.04694111E+00  2.33650274E+00  0.00000000E+00 -4.04694111E+00  2.33650274E+00
  0.00000000E+00
Number of symbols in /Mol/                 I                0
Force Field                                I                0
Atom Types                                 C   N=          12
                                                            
                                                            
                        
Int Atom Types                             I   N=          12
           0           0           0           0           0           0
           0           0           0           0           0           0
MM charges                                 R   N=          12
  0.00000000E+00  0.00000000E+00  0.00000000E+00  0.00000000E+00  0.00000000E+00
  0.00000000E+00  0.00000000E+00  0.00000000E+00  0.00000000E+00  0.00000000E+00
  0.00000000E+00  0.00000000E+00
Integer atomic weights                     I   N=          12
          12          12          12          12          12          12
           1           1           1           1           1           1
Real atomic weights                        R   N=          12
  1.20000000E+01  1.20000000E+01  1.20000000E+01  1.20000000E+01  1.20000000E+01
  1.20000000E+01  1.00782504E+00  1.00782504E+00  1.00782504E+00  1.00782504E+00
  1.00782504E+00  1.00782504E+00
Atom fragment info                         I   N=          12
           0           0           0           0           0           0
           0           0           0           0           0           0
Atom residue num                           I   N=          12
           0           0           0           0           0           0
           0           0           0           0           0           0
Nuclear spins                              I   N=          12
           0           0           0           0           0           0
           1           1           1           1           1           1
Nuclear ZEff                               R   N=          12
 -3.60000000E+00 -3.60000000E+00 -3.60000000E+00 -3.60000000E+00 -3.60000000E+00
 -3.60000000E+00 -1.00000000E+00 -1.00000000E+00 -1.00000000E+00 -1.00000000E+00
 -1.00000000E+00 -1.00000000E+00
Nuclear ZNuc                               R   N=          12
  6.00000000E+00  6.00000000E+00  6.00000000E+00  6.00000000E+00  6.00000000E+00
  6.00000000E+00  1.00000000E+00  1.00000000E+00  1.00000000E+00  1.00000000E+00
  1.00000000E+00  1.00000000E+00
Nuclear QMom                               R   N=          12
  0.00000000E+00  0.00000000E+00  0.00000000E+00  0.00000000E+00  0.00000000E+00
  0.00000000E+00  0.00000000E+00  0.00000000E+00  0.00000000E+00  0.00000000E+00
  0.00000000E+00  0.00000000E+00
Nuclear GFac                               R   N=          12
  0.00000000E+00  0.00000000E+00  0.00000000E+00  0.00000000E+00  0.00000000E+00
  0.00000000E+00  2.79284600E+00  2.79284600E+00  2.79284600E+00  2.79284600E+00
  2.79284600E+00  2.79284600E+00
MicOpt                                     I   N=          12
          -1          -1          -1          -1          -1          -1
          -1          -1          -1          -1          -1          -1
Number of residues                         I                0
Number of secondary structures             I                0
Number of contracted shells                I              102
Number of primitive shells                 I              168
Pure/Cartesian d shells                    I                0
Pure/Cartesian f shells                    I                0
Highest angular momentum                   I                3
Largest degree of contraction              I                6
Shell types                                I   N=         102
           0           0           0           0           0           1
           1           1          -2          -2          -3           0
           0           0           0           0           1           1
           1          -2          -2          -3           0           0
           0           0           0           1           1           1
          -2          -2          -3           0           0           0
           0           0           1           1           1          -2
          -2          -3           0           0           0           0
           0           1           1           1          -2          -2
          -3           0           0           0           0           0
           1           1           1          -2          -2          -3
           0           0           0           1           1          -2
           0           0           0           1           1          -2
           0           0           0           1           1          -2
           0           0           0           1           1          -2
           0           0           0           1           1          -2
           0           0           0           1           1          -2
Number of primitives per shell             I   N=         102
           6           2           1           1           1           4
           1           1           1           1           1           6
           2           1           1           1           4           1
           1           1           1           1           6           2
           1           1           1           4           1           1
           1           1           1           6           2           1
           1           1           4           1           1           1
           1           1           6           2           1           1
           1           4           1           1           1           1
           1           6           2           1           1           1
           4           1           1           1           1           1
           3           1           1           1           1           1
           3           1           1           1           1           1
           3           1           1           1           1           1
           3           1           1           1           1           1
           3           1           1           1           1           1
           3           1           1           1           1           1
Shell to atom map                          I   N=         102
           1           1           1           1           1           1
           1           1           1           1           1           2
           2           2           2           2           2           2
           2           2           2           2           3           3
           3           3           3           3           3           3
           3           3           3           4           4           4
           4           4           4           4           4           4
           4           4           5           5           5           5
           5           5           5           5           5           5
           5           6           6           6           6           6
           6           6           6           6           6           6
           7           7           7           7           7           7
           8           8           8           8           8           8
           9           9           9           9           9           9
          10          10          10          10          10          10
          11          11          11          11          11          11
          12          12          12          12          12          12
Primitive exponents                        R   N=         168
  1.35753497E+04  2.03523337E+03  4.63225624E+02  1.31200196E+02  4.28530159E+01
  1.55841858E+01  6.20671385E+00  2.57648965E+00  5.76963394E-01  2.29728314E-01
  9.51644400E-02  3.46972322E+01  7.95826228E+00  2.37808269E+00  8.14332082E-01
  2.88875473E-01  1.00568237E-01  1.09700000E+00  3.18000000E-01  7.61000000E-01
  1.35753497E+04  2.03523337E+03  4.63225624E+02  1.31200196E+02  4.28530159E+01
  1.55841858E+01  6.20671385E+00  2.57648965E+00  5.76963394E-01  2.29728314E-01
  9.51644400E-02  3.46972322E+01  7.95826228E+00  2.37808269E+00  8.14332082E-01
  2.88875473E-01  1.00568237E-01  1.09700000E+00  3.18000000E-01  7.61000000E-01
  1.35753497E+04  2.03523337E+03  4.63225624E+02  1.31200196E+02  4.28530159E+01
  1.55841858E+01  6.20671385E+00  2.57648965E+00  5.76963394E-01  2.29728314E-01
  9.51644400E-02  3.46972322E+01  7.95826228E+00  2.37808269E+00  8.14332082E-01
  2.88875473E-01  1.00568237E-01  1.09700000E+00  3.18000000E-01  7.61000000E-01
  1.35753497E+04  2.03523337E+03  4.63225624E+02  1.31200196E+02  4.28530159E+01
  1.55841858E+01  6.20671385E+00  2.57648965E+00  5.76963394E-01  2.29728314E-01
  9.51644400E-02  3.46972322E+01  7.95826228E+00  2.37808269E+00  8.14332082E-01
  2.88875473E-01  1.00568237E-01  1.09700000E+00  3.18000000E-01  7.61000000E-01
  1.35753497E+04  2.03523337E+03  4.63225624E+02  1.31200196E+02  4.28530159E+01
  1.55841858E+01  6.20671385E+00  2.57648965E+00  5.76963394E-01  2.29728314E-01
  9.51644400E-02  3.46972322E+01  7.95826228E+00  2.37808269E+00  8.14332082E-01
  2.88875473E-01  1.00568237E-01  1.09700000E+00  3.18000000E-01  7.61000000E-01
  1.35753497E+04  2.03523337E+03  4.63225624E+02  1.31200196E+02  4.28530159E+01
  1.55841858E+01  6.20671385E+00  2.57648965E+00  5.76963394E-01  2.29728314E-01
  9.51644400E-02  3.46972322E+01  7.95826228E+00  2.37808269E+00  8.14332082E-01
  2.88875473E-01  1.00568237E-01  1.09700000E+00  3.18000000E-01  7.61000000E-01
  3.40613410E+01  5.12357460E+00  1.16466260E+00  3.27230410E-01  1.03072410E-01
  1.40700000E+00  3.88000000E-01  1.05700000E+00  3.40613410E+01  5.12357460E+00
  1.16466260E+00  3.27230410E-01  1.03072410E-01  1.40700000E+00  3.88000000E-01
  1.05700000E+00  3.40613410E+01  5.12357460E+00  1.16466260E+00  3.27230410E-01
  1.03072410E-01  1.40700000E+00  3.88000000E-01  1.05700000E+00  3.40613410E+01
  5.12357460E+00  1.16466260E+00  3.27230410E-01  1.03072410E-01  1.40700000E+00
  3.88000000E-01  1.05700000E+00  3.40613410E+01  5.12357460E+00  1.16466260E+00
  3.27230410E-01  1.03072410E-01  1.40700000E+00  3.88000000E-01  1.05700000E+00
  3.40613410E+01  5.12357460E+00  1.16466260E+00  3.27230410E-01  1.03072410E-01
  1.40700000E+00  3.88000000E-01  1.05700000E+00
Contraction coefficients                   R   N=         168
  6.06455036E-04  4.69790889E-03  2.43324776E-02  9.73999683E-02  3.01955843E-01
  6.62336091E-01  6.55953085E-01  3.75856333E-01  1.00000000E+00  1.00000000E+00
  1.00000000E+00  1.13272200E-02  7.61696592E-02  3.01922522E-01  7.27850273E-01
  1.00000000E+00  1.00000000E+00  1.00000000E+00  1.00000000E+00  1.00000000E+00
  6.06455036E-04  4.69790889E-03  2.43324776E-02  9.73999683E-02  3.01955843E-01
  6.62336091E-01  6.55953085E-01  3.75856333E-01  1.00000000E+00  1.00000000E+00
  1.00000000E+00  1.13272200E-02  7.61696592E-02  3.01922522E-01  7.27850273E-01
  1.00000000E+00  1.00000000E+00  1.00000000E+00  1.00000000E+00  1.00000000E+00
  6.06455036E-04  4.69790889E-03  2.43324776E-02  9.73999683E-02  3.01955843E-01
  6.62336091E-01  6.55953085E-01  3.75856333E-01  1.00000000E+00  1.00000000E+00
  1.00000000E+00  1.13272200E-02  7.61696592E-02  3.01922522E-01  7.27850273E-01
  1.00000000E+00  1.00000000E+00  1.00000000E+00  1.00000000E+00  1.00000000E+00
  6.06455036E-04  4.69790889E-03  2.43324776E-02  9.73999683E-02  3.01955843E-01
  6.62336091E-01  6.55953085E-01  3.75856333E-01  1.00000000E+00  1.00000000E+00
  1.00000000E+00  1.13272200E-02  7.61696592E-02  3.01922522E-01  7.27850273E-01
  1.00000000E+00  1.00000000E+00  1.00000000E+00  1.00000000E+00  1.00000000E+00
  6.06455036E-04  4.69790889E-03  2.43324776E-02  9.73999683E-02  3.01955843E-01
  6.62336091E-01  6.55953085E-01  3.75856333E-01  1.00000000E+00  1.00000000E+00
  1.00000000E+00  1.13272200E-02  7.61696592E-02  3.01922522E-01  7.27850273E-01
  1.00000000E+00  1.00000000E+00  1.00000000E+00  1.00000000E+00  1.00000000E+00
  6.06455036E-04  4.69790889E-03  2.43324776E-02  9.73999683E-02  3.01955843E-01
  6.62336091E-01  6.55953085E-01  3.75856333E-01  1.00000000E+00  1.00000000E+00
  1.00000000E+00  1.13272200E-02  7.61696592E-02  3.01922522E-01  7.27850273E-01
  1.00000000E+00  1.00000000E+00  1.00000000E+00  1.00000000E+00  1.00000000E+00
  2.54393072E-02  1.90085949E-01  8.52441130E-01  1.00000000E+00  1.00000000E+00
  1.00000000E+00  1.00000000E+00  1.00000000E+00  2.54393072E-02  1.90085949E-01
  8.52441130E-01  1.00000000E+00  1.00000000E+00  1.00000000E+00  1.00000000E+00
  1.00000000E+00  2.54393072E-02  1.90085949E-01  8.52441130E-01  1.00000000E+00
  1.00000000E+00  1.00000000E+00  1.00000000E+00  1.00000000E+00  2.54393072E-02
  1.90085949E-01  8.52441130E-01  1.00000000E+00  1.00000000E+00  1.00000000E+00
  1.00000000E+00  1.00000000E+00  2.54393072E-02  1.90085949E-01  8.52441130E-01
  1.00000000E+00  1.00000000E+00  1.00000000E+00  1.00000000E+00  1.00000000E+00
  2.54393072E-02  1.90085949E-01  8.52441130E-01  1.00000000E+00  1.00000000E+00
  1.00000000E+00  1.00000000E+00  1.00000000E+00
Coordinates of each shell                  R   N=         306
  0.00000000E+00  2.62807993E+00  0.00000000E+00  0.00000000E+00  2.62807993E+00
  0.00000000E+00  0.00000000E+00  2.62807993E+00  0.00000000E+00  0.00000000E+00
  2.62807993E+00  0.00000000E+00  0.00000000E+00  2.62807993E+00  0.00000000E+00
  0.00000000E+00  2.62807993E+00  0.00000000E+00  0.00000000E+00  2.62807993E+00
  0.00000000E+00  0.00000000E+00  2.62807993E+00  0.00000000E+00  0.00000000E+00
  2.62807993E+00  0.00000000E+00  0.00000000E+00  2.62807993E+00  0.00000000E+00
  0.00000000E+00  2.62807993E+00  0.00000000E+00 -2.27598426E+00  1.31403996E+00
  0.00000000E+00 -2.27598426E+00  1.31403996E+00  0.00000000E+00 -2.27598426E+00
  1.31403996E+00  0.00000000E+00 -2.27598426E+00  1.31403996E+00  0.00000000E+00
 -2.27598426E+00  1.31403996E+00  0.00000000E+00 -2.27598426E+00  1.31403996E+00
  0.00000000E+00 -2.27598426E+00  1.31403996E+00  0.00000000E+00 -2.27598426E+00
  1.31403996E+00  0.00000000E+00 -2.27598426E+00  1.31403996E+00  0.00000000E+00
 -2.27598426E+00  1.31403996E+00  0.00000000E+00 -2.27598426E+00  1.31403996E+00
  0.00000000E+00 -2.27598426E+00 -1.31403996E+00  0.00000000E+00 -2.27598426E+00
 -1.31403996E+00  0.00000000E+00 -2.27598426E+00 -1.31403996E+00  0.00000000E+00
 -2.27598426E+00 -1.31403996E+00  0.00000000E+00 -2.27598426E+00 -1.31403996E+00
  0.00000000E+00 -2.27598426E+00 -1.31403996E+00  0.00000000E+00 -2.27598426E+00
 -1.31403996E+00  0.00000000E+00 -2.27598426E+00 -1.31403996E+00  0.00000000E+00
 -2.27598426E+00 -1.31403996E+00  0.00000000E+00 -2.27598426E+00 -1.31403996E+00
  0.00000000E+00 -2.27598426E+00 -1.31403996E+00  0.00000000E+00  0.00000000E+00
 -2.62807993E+00  0.00000000E+00  0.00000000E+00 -2.62807993E+00  0.00000000E+00
  0.00000000E+00 -2.62807993E+00  0.00000000E+00  0.00000000E+00 -2.62807993E+00
  0.00000000E+00  0.00000000E+00 -2.62807993E+00  0.00000000E+00  0.00000000E+00
 -2.62807993E+00  0.00000000E+00  0.00000000E+00 -2.62807993E+00  0.00000000E+00
  0.00000000E+00 -2.62807993E+00  0.00000000E+00  0.00000000E+00 -2.62807993E+00
  0.00000000E+00  0.00000000E+00 -2.62807993E+00  0.00000000E+00  0.00000000E+00
 -2.62807993E+00  0.00000000E+00  2.27598426E+00 -1.31403996E+00  0.00000000E+00
  2.27598426E+00 -1.31403996E+00  0.00000000E+00  2.27598426E+00 -1.31403996E+00
  0.00000000E+00  2.27598426E+00 -1.31403996E+00  0.00000000E+00  2.27598426E+00
 -1.31403996E+00  0.00000000E+00  2.27598426E+00 -1.31403996E+00  0.00000000E+00
  2.27598426E+00 -1.31403996E+00  0.00000000E+00  2.27598426E+00 -1.31403996E+00
  0.00000000E+00  2.27598426E+00 -1.31403996E+00  0.00000000E+00  2.27598426E+00
 -1.31403996E+00  0.00000000E+00  2.27598426E+00 -1.31403996E+00  0.00000000E+00
  2.27598426E+00  1.31403996E+00  0.00000000E+00  2.27598426E+00  1.31403996E+00
  0.00000000E+00  2.27598426E+00  1.31403996E+00  0.00000000E+00  2.27598426E+00
  1.31403996E+00  0.00000000E+00  2.27598426E+00  1.31403996E+00  0.00000000E+00
  2.27598426E+00  1.31403996E+00  0.00000000E+00  2.27598426E+00  1.31403996E+00
  0.00000000E+00  2.27598426E+00  1.31403996E+00  0.00000000E+00  2.27598426E+00
  1.31403996E+00  0.00000000E+00  2.27598426E+00  1.31403996E+00  0.00000000E+00
  2.27598426E+00  1.31403996E+00  0.00000000E+00  0.00000000E+00  4.67300549E+00
  0.00000000E+00  0.00000000E+00  4.67300549E+00  0.00000000E+00  0.00000000E+00
  4.67300549E+00  0.00000000E+00  0.00000000E+00  4.67300549E+00  0.00000000E+00
  0.00000000E+00  4.67300549E+00  0.00000000E+00  0.00000000E+00  4.67300549E+00
  0.00000000E+00 -4.04694111E+00 -2.33650274E+00  0.00000000E+00 -4.04694111E+00
 -2.33650274E+00  0.00000000E+00 -4.04694111E+00 -2.33650274E+00  0.00000000E+00
 -4.04694111E+00 -2.33650274E+00  0.00000000E+00 -4.04694111E+00 -2.33650274E+00
  0.00000000E+00 -4.04694111E+00 -2.33650274E+00  0.00000000E+00  0.00000000E+00
 -4.67300549E+00  0.00000000E+00  0.00000000E+00 -4.67300549E+00  0.00000000E+00
  0.00000000E+00 -4.67300549E+00  0.00000000E+00  0.00000000E+00 -4.67300549E+00
  0.00000000E+00  0.00000000E+00 -4.67300549E+00  0.00000000E+00  0.00000000E+00
 -4.67300549E+00  0.00000000E+00  4.04694111E+00 -2.33650274E+00  0.00000000E+00
  4.04694111E+00 -2.33650274E+00  0.00000000E+00  4.04694111E+00 -2.33650274E+00
  0.00000000E+00  4.04694111E+00 -2.33650274E+00  0.00000000E+00  4.04694111E+00
 -2.33650274E+00  0.00000000E+00  4.04694111E+00 -2.33650274E+00  0.00000000E+00
  4.04694111E+00  2.33650274E+00  0.00000000E+00  4.04694111E+00  2.33650274E+00
  0.00000000E+00  4.04694111E+00  2.33650274E+00  0.00000000E+00  4.04694111E+00
  2.33650274E+00  0.00000000E+00  4.04694111E+00  2.33650274E+00  0.00000000E+00
  4.04694111E+00  2.33650274E+00  0.00000000E+00 -4.04694111E+00  2.33650274E+00
  0.00000000E+00 -4.04694111E+00  2.33650274E+00  0.00000000E+00 -4.04694111E+00
  2.33650274E+00  0.00000000E+00 -4.04694111E+00  2.33650274E+00  0.00000000E+00
 -4.04694111E+00  2.33650274E+00  0.00000000E+00 -4.04694111E+00  2.33650274E+00
  0.00000000E+00
Constraint Structure                       R   N=          36
  0.00000000E+00  2.62807993E+00  0.00000000E+00 -2.27598426E+00  1.31403996E+00
  0.00000000E+00 -2.27598426E+00 -1.31403996E+00  0.00000000E+00  0.00000000E+00
 -2.62807993E+00  0.00000000E+00  2.27598426E+00 -1.31403996E+00  0.00000000E+00
  2.27598426E+00  1.31403996E+00  0.00000000E+00  0.00000000E+00  4.67300549E+00
  0.00000000E+00 -4.04694111E+00 -2.33650274E+00  0.00000000E+00  0.00000000E+00
 -4.67300549E+00  0.00000000E+00  4.04694111E+00 -2.33650274E+00  0.00000000E+00
  4.04694111E+00  2.33650274E+00  0.00000000E+00 -4.04694111E+00  2.33650274E+00
  0.00000000E+00
Num ILSW                                   I              100
ILSW                                       I   N=         100
           0           0           0           0           2           0
           0           0           3           0         402  9175040000
           0           0           0           0           0           0
           0           0           1           0           0           0
           1           1           0           0           0           0
           0           0      100000           0          -1           0
           0           0           0           0           0           0
           0           0           0           1           0           0
           0           0           1           0           0           0
           0           0           4          41           0           0
           0           0           5           0           0           0
           0           0           0           0           0           0
           0           0           0           0           0           0
           0           0           0           0           0           0
           0           0           0           0           0           0
           0           0           0           0           0           0
           0           0           0           0
Num RLSW                                   I               41
RLSW                                       R   N=          41
  8.00000000E-01  7.20000000E-01  1.00000000E+00  8.10000000E-01  2.00000000E-01
  0.00000000E+00  0.00000000E+00  1.00000000E+00  0.00000000E+00  0.00000000E+00
  0.00000000E+00  0.00000000E+00  1.00000000E+00  0.00000000E+00  0.00000000E+00
  0.00000000E+00  0.00000000E+00  1.00000000E+00  0.00000000E+00  0.00000000E+00
  0.00000000E+00  0.00000000E+00  1.00000000E+00  0.00000000E+00  0.00000000E+00
  0.00000000E+00  0.00000000E+00  1.00000000E+00  0.00000000E+00  0.00000000E+00
  0.00000000E+00  0.00000000E+00  1.00000000E+00  0.00000000E+00  0.00000000E+00
  0.00000000E+00  0.00000000E+00  0.00000000E+00  1.00000000E+00  1.00000000E+00
  0.00000000E+00
ECP-MxAtEC                                 I           250000
ECP-MaxLECP                                I               10
ECP-MaxAtL                                 I          2250000
ECP-MxTECP                                 I         11250000
ECP-LenNCZ                                 I                0
ECP-KFirst                                 I   N=         120
           0           0           0           0           0           0
           0           0           0           0           0           0
           0           0           0           0           0           0
           0           0           0           0           0           0
           0           0           0           0           0           0
           0           0           0           0           0           0
           0           0           0           0           0           0
           0           0           0           0           0           0
           0           0           0           0           0           0
           0           0           0           0           0           0
           0           0           0           0           0           0
           0           0           0           0           0           0
           0           0           0           0           0           0
           0           0           0           0           0           0
           0           0           0           0           0           0
           0           0           0           0           0           0
           0           0           0           0           0           0
           0           0           0           0           0           0
           0           0           0           0           0           0
           0           0           0           0           0           0
ECP-KLast                                  I   N=         120
           0           0           0           0           0           0
           0           0           0           0           0           0
           0           0           0           0           0           0
           0           0           0           0           0           0
           0           0           0           0           0           0
           0           0           0           0           0           0
           0           0           0           0           0           0
           0           0           0           0           0           0
           0           0           0           0           0           0
           0           0           0           0           0           0
           0           0           0           0           0           0
           0           0           0           0           0           0
           0           0           0           0           0           0
           0           0           0           0           0           0
           0           0           0           0           0           0
           0           0           0           0           0           0
           0           0           0           0           0           0
           0           0           0           0           0           0
           0           0           0           0           0           0
           0           0           0           0           0           0
ECP-LMax                                   I   N=          12
           0           0           0           0           0           0
           0           0           0           0           0           0
ECP-LPSkip                                 I   N=          12
           1           1           1           1           1           1
           1           1           1           1           1           1
ECP-RNFroz                                 R   N=          12
  0.00000000E+00  0.00000000E+00  0.00000000E+00  0.00000000E+00  0.00000000E+00
  0.00000000E+00  0.00000000E+00  0.00000000E+00  0.00000000E+00  0.00000000E+00
  0.00000000E+00  0.00000000E+00
ECP-NLP                                    I                0
ECP-CLP1                                   R      0.000000000000000E+00
ECP-CLP2                                   R      0.000000000000000E+00
ECP-ZLP                                    R      0.000000000000000E+00
MxBond                                     I                3
NBond                                      I   N=          12
           3           3           3           3           3           3
           1           1           1           1           1           1
IBond                                      I   N=          36
           2           6           7           1           3          12
           2           4           8           3           5           9
           4           6          10           1           5          11
           1           0           0           3           0           0
           4           0           0           5           0           0
           6           0           0           2           0           0
RBond                                      R   N=          36
  1.50000000E+00  1.50000000E+00  1.00000000E+00  1.50000000E+00  1.50000000E+00
  1.00000000E+00  1.50000000E+00  1.50000000E+00  1.00000000E+00  1.50000000E+00
  1.50000000E+00  1.00000000E+00  1.50000000E+00  1.50000000E+00  1.00000000E+00
  1.50000000E+00  1.50000000E+00  1.00000000E+00  1.00000000E+00  0.00000000E+00
  0.00000000E+00  1.00000000E+00  0.00000000E+00  0.00000000E+00  1.00000000E+00
  0.00000000E+00  0.00000000E+00  1.00000000E+00  0.00000000E+00  0.00000000E+00
  1.00000000E+00  0.00000000E+00  0.00000000E+00  1.00000000E+00  0.00000000E+00
  0.00000000E+00
Virial Ratio                               R      2.005380041346388E+00
SCF Energy                                 R     -2.323400068833979E+02
Total Energy                               R     -2.323400068833979E+02
RMS Density                                R      4.077177038907456E-09
Job Status                                 I                1
Nuclear derivative order                   I                0
External E-field                           R   N=          35
  0.00000000E+00  0.00000000E+00  0.00000000E+00  0.00000000E+00  0.00000000E+00
  0.00000000E+00  0.00000000E+00  0.00000000E+00  0.00000000E+00  0.00000000E+00
  0.00000000E+00  0.00000000E+00  0.00000000E+00  0.00000000E+00  0.00000000E+00
  0.00000000E+00  0.00000000E+00  0.00000000E+00  0.00000000E+00  0.00000000E+00
  0.00000000E+00  0.00000000E+00  0.00000000E+00  0.00000000E+00  0.00000000E+00
  0.00000000E+00  0.00000000E+00  0.00000000E+00  0.00000000E+00  0.00000000E+00
  0.00000000E+00  0.00000000E+00  0.00000000E+00  0.00000000E+00  0.00000000E+00
IOpCl                                      I                0
IROHF                                      I                0
Alpha Orbital Energies                     R   N=         270
 -1.01772744E+01 -1.01770385E+01 -1.01770376E+01 -1.01764505E+01 -1.01764497E+01