 Entering Gaussian System, Link 0=g09
 Initial command:
 /usr/local/gaussian/gaussian09/g09/l1.exe "/scratch/wang/Ph.gjf-3523432/Gau-432.inp" -scrdir="/scratch/wang/Ph.gjf-3523432/"
 Default is to use a total of   2 processors:
                                2 via shared-memory
                                1 via Linda
 Entering Link 1 = /usr/local/gaussian/gaussian09/g09/l1.exe PID=       433.
  
 Copyright (c) 1988,1990,1992,1993,1995,1998,2003,2009,2015,
            Gaussian, Inc.  All Rights Reserved.
  
 This is part of the Gaussian(R) 09 program.  It is based on
 the Gaussian(R) 03 system (copyright 2003, Gaussian, Inc.),
 the Gaussian(R) 98 system (copyright 1998, Gaussian, Inc.),
 the Gaussian(R) 94 system (copyright 1995, Gaussian, Inc.),
 the Gaussian 92(TM) system (copyright 1992, Gaussian, Inc.),
 the Gaussian 90(TM) system (copyright 1990, Gaussian, Inc.),
 the Gaussian 88(TM) system (copyright 1988, Gaussian, Inc.),
 the Gaussian 86(TM) system (copyright 1986, Carnegie Mellon
 University), and the Gaussian 82(TM) system (copyright 1983,
 Carnegie Mellon University). Gaussian is a federally registered
 trademark of Gaussian, Inc.
  
 This software contains proprietary and confidential information,
 including trade secrets, belonging to Gaussian, Inc.
  
 This software is provided under written license and may be
 used, copied, transmitted, or stored only in accord with that
 written license.
  
 The following legend is applicable only to US Government
 contracts under FAR:
  
                    RESTRICTED RIGHTS LEGEND
  
 Use, reproduction and disclosure by the US Government is
 subject to restrictions as set forth in subparagraphs (a)
 and (c) of the Commercial Computer Software - Restricted
 Rights clause in FAR 52.227-19.
  
 Gaussian, Inc.
 340 Quinnipiac St., Bldg. 40, Wallingford CT 06492
  
  
 ---------------------------------------------------------------
 Warning -- This program may not be used in any manner that
 competes with the business of Gaussian, Inc. or will provide
 assistance to any competitor of Gaussian, Inc.  The licensee
 of this program is prohibited from giving any competitor of
 Gaussian, Inc. access to this program.  By using this program,
 the user acknowledges that Gaussian, Inc. is engaged in the
 business of creating and licensing software in the field of
 computational chemistry and represents and warrants to the
 licensee that it is not a competitor of Gaussian, Inc. and that
 it will not use this program in any manner prohibited above.
 ---------------------------------------------------------------
  

 Cite this work as:
 Gaussian 09, Revision E.01,
 M. J. Frisch, G. W. Trucks, H. B. Schlegel, G. E. Scuseria, 
 M. A. Robb, J. R. Cheeseman, G. Scalmani, V. Barone, B. Mennucci, 
 G. A. Petersson, H. Nakatsuji, M. Caricato, X. Li, H. P. Hratchian, 
 A. F. Izmaylov, J. Bloino, G. Zheng, J. L. Sonnenberg, M. Hada, 
 M. Ehara, K. Toyota, R. Fukuda, J. Hasegawa, M. Ishida, T. Nakajima, 
 Y. Honda, O. Kitao, H. Nakai, T. Vreven, J. A. Montgomery, Jr., 
 J. E. Peralta, F. Ogliaro, M. Bearpark, J. J. Heyd, E. Brothers, 
 K. N. Kudin, V. N. Staroverov, T. Keith, R. Kobayashi, J. Normand, 
 K. Raghavachari, A. Rendell, J. C. Burant, S. S. Iyengar, J. Tomasi, 
 M. Cossi, N. Rega, J. M. Millam, M. Klene, J. E. Knox, J. B. Cross, 
 V. Bakken, C. Adamo, J. Jaramillo, R. Gomperts, R. E. Stratmann, 
 O. Yazyev, A. J. Austin, R. Cammi, C. Pomelli, J. W. Ochterski, 
 R. L. Martin, K. Morokuma, V. G. Zakrzewski, G. A. Voth, 
 P. Salvador, J. J. Dannenberg, S. Dapprich, A. D. Daniels, 
 O. Farkas, J. B. Foresman, J. V. Ortiz, J. Cioslowski, 
 and D. J. Fox, Gaussian, Inc., Wallingford CT, 2013.
 
 ******************************************
 Gaussian 09:  EM64L-G09RevE.01 30-Nov-2015
                27-Dec-2017 
 ******************************************
 Default route:  MaxDisk=70000MB
 ---------------------------------------------------------
 # B3LYP/Def2TZVPP fchk=All Pop=NBO6Read SCFCYC=250 NOSYMM
 ---------------------------------------------------------
 1/38=1,163=2/1;
 2/12=2,15=1,17=6,18=5,40=1/2;
 3/5=44,7=202,11=2,16=1,25=1,30=1,74=-5/1,2,3;
 4//1;
 5/5=2,7=250,38=5/2;
 6/7=2,8=2,9=2,10=2,28=1,40=2,113=1,114=1,124=2103/1,12;
 99/5=1,9=1/99;
 ---------
 optimized
 ---------
 Symbolic Z-matrix:
 Charge =  0 Multiplicity = 1
 6                     0.        1.39072   0. 
 6                    -1.2044    0.69536   0. 
 6                    -1.2044   -0.69536   0. 
 6                     0.       -1.39072   0. 
 6                     1.2044   -0.69536   0. 
 6                     1.2044    0.69536   0. 
 1                     0.        2.47285   0. 
 1                    -2.14155  -1.23642   0. 
 1                     0.       -2.47285   0. 
 1                     2.14155  -1.23642   0. 
 1                     2.14155   1.23642   0. 
 1                    -2.14155   1.23642   0. 
 
                          Input orientation:                          
 ---------------------------------------------------------------------
 Center     Atomic      Atomic             Coordinates (Angstroms)
 Number     Number       Type             X           Y           Z
 ---------------------------------------------------------------------
      1          6           0        0.000000    1.390720    0.000000
      2          6           0       -1.204399    0.695360    0.000000
      3          6           0       -1.204399   -0.695360    0.000000
      4          6           0        0.000000   -1.390720    0.000000
      5          6           0        1.204399   -0.695360    0.000000
      6          6           0        1.204399    0.695360    0.000000
      7          1           0        0.000000    2.472848    0.000000
      8          1           0       -2.141549   -1.236424    0.000000
      9          1           0        0.000000   -2.472848    0.000000
     10          1           0        2.141549   -1.236424    0.000000
     11          1           0        2.141549    1.236424    0.000000
     12          1           0       -2.141549    1.236424    0.000000
 ---------------------------------------------------------------------
                    Distance matrix (angstroms):
                    1          2          3          4          5
     1  C    0.000000
     2  C    1.390720   0.000000
     3  C    2.408798   1.390720   0.000000
     4  C    2.781440   2.408798   1.390720   0.000000
     5  C    2.408798   2.781440   2.408798   1.390720   0.000000
     6  C    1.390720   2.408798   2.781440   2.408798   1.390720
     7  H    1.082128   2.147100   3.389413   3.863568   3.389413
     8  H    3.389413   2.147100   1.082128   2.147100   3.389413
     9  H    3.863568   3.389413   2.147100   1.082128   2.147100
    10  H    3.389413   3.863568   3.389413   2.147100   1.082128
    11  H    2.147100   3.389413   3.863568   3.389413   2.147100
    12  H    2.147100   1.082128   2.147100   3.389413   3.863568
                    6          7          8          9         10
     6  C    0.000000
     7  H    2.147100   0.000000
     8  H    3.863568   4.283098   0.000000
     9  H    3.389413   4.945696   2.472848   0.000000
    10  H    2.147100   4.283098   4.283098   2.472848   0.000000
    11  H    1.082128   2.472848   4.945696   4.283098   2.472848
    12  H    3.389413   2.472848   2.472848   4.283098   4.945696
                   11         12
    11  H    0.000000
    12  H    4.283098   0.000000
 Symmetry turned off by external request.
 Stoichiometry    C6H6
 Framework group  D6H[3C2'(HC.CH)]
 Deg. of freedom     2
 Full point group                 D6H     NOp  24
 Rotational constants (GHZ):      5.7353727      5.7353718      2.8676861
 Standard basis: def2TZVPP (5D, 7F)
   270 basis functions,   408 primitive gaussians,   306 cartesian basis functions
    21 alpha electrons       21 beta electrons
       nuclear repulsion energy       204.0565142588 Hartrees.
 NAtoms=   12 NActive=   12 NUniq=   12 SFac= 1.00D+00 NAtFMM=   60 NAOKFM=F Big=F
 Integral buffers will be    131072 words long.
 Raffenetti 2 integral format.
 Two-electron integral symmetry is turned off.
 One-electron integrals computed using PRISM.
   1 Symmetry operations used in ECPInt.
 ECPInt:  NShTT=    5253 NPrTT=   14346 LenC2=    5224 LenP2D=   12180.
 LDataN:  DoStor=T MaxTD1= 6 Len=  172
 NBasis=   270 RedAO= T EigKep=  1.01D-05  NBF=   270
 NBsUse=   270 1.00D-06 EigRej= -1.00D+00 NBFU=   270
 ExpMin= 9.52D-02 ExpMax= 1.36D+04 ExpMxC= 4.63D+02 IAcc=2 IRadAn=         4 AccDes= 0.00D+00
 Harris functional with IExCor=  402 and IRadAn=       4 diagonalized for initial guess.
 HarFok:  IExCor=  402 AccDes= 0.00D+00 IRadAn=         4 IDoV= 1 UseB2=F ITyADJ=14
 ICtDFT=  3500011 ScaDFX=  1.000000  1.000000  1.000000  1.000000
 FoFCou: FMM=F IPFlag=           0 FMFlag=      100000 FMFlg1=           0
         NFxFlg=           0 DoJE=T BraDBF=F KetDBF=T FulRan=T
         wScrn=  0.000000 ICntrl=     500 IOpCl=  0 I1Cent=   200000004 NGrid=           0
         NMat0=    1 NMatS0=      1 NMatT0=    0 NMatD0=    1 NMtDS0=    0 NMtDT0=    0
 Symmetry not used in FoFCou.
 Requested convergence on RMS density matrix=1.00D-08 within 250 cycles.
 Requested convergence on MAX density matrix=1.00D-06.
 Requested convergence on             energy=1.00D-06.
 No special actions if energy rises.
 Integral accuracy reduced to 1.0D-05 until final iterations.
 Initial convergence to 1.0D-05 achieved.  Increase integral accuracy.
 SCF Done:  E(RB3LYP) =  -232.340006883     A.U. after   11 cycles
            NFock= 11  Conv=0.41D-08     -V/T= 2.0054

 **********************************************************************

            Population analysis using the SCF density.

 **********************************************************************

 Alpha  occ. eigenvalues --  -10.17727 -10.17704 -10.17704 -10.17645 -10.17645
 Alpha  occ. eigenvalues --  -10.17618  -0.85864  -0.74974  -0.74974  -0.60651
 Alpha  occ. eigenvalues --   -0.60651  -0.52879  -0.46433  -0.45183  -0.42608
 Alpha  occ. eigenvalues --   -0.42608  -0.37358  -0.34869  -0.34869  -0.25962
 Alpha  occ. eigenvalues --   -0.25962
 Alpha virt. eigenvalues --   -0.01470  -0.01469   0.04509   0.07802   0.07802
 Alpha virt. eigenvalues --    0.10484   0.10485   0.12671   0.13968   0.14699
 Alpha virt. eigenvalues --    0.20519   0.20848   0.21523   0.21524   0.22854
 Alpha virt. eigenvalues --    0.22858   0.24566   0.24573   0.26840   0.26842
 Alpha virt. eigenvalues --    0.32572   0.32574   0.32582   0.35609   0.35616
 Alpha virt. eigenvalues --    0.38102   0.40280   0.41658   0.41659   0.43564
 Alpha virt. eigenvalues --    0.43568   0.43621   0.44467   0.46062   0.48949
 Alpha virt. eigenvalues --    0.49009   0.49012   0.50309   0.50311   0.63422
 Alpha virt. eigenvalues --    0.63430   0.65012   0.66759   0.66899   0.66901
 Alpha virt. eigenvalues --    0.68469   0.75074   0.75076   0.75885   0.75885
 Alpha virt. eigenvalues --    0.79473   0.80683   0.87350   0.89147   0.92719
 Alpha virt. eigenvalues --    0.94525   0.94526   0.98176   0.98180   0.98447
 Alpha virt. eigenvalues --    0.99486   0.99507   1.08175   1.08177   1.08648
 Alpha virt. eigenvalues --    1.08650   1.17547   1.17737   1.17737   1.18847
 Alpha virt. eigenvalues --    1.18856   1.20306   1.25193   1.27777   1.27779
 Alpha virt. eigenvalues --    1.28429   1.28435   1.34096   1.34096   1.36149
 Alpha virt. eigenvalues --    1.36151   1.36268   1.40874   1.46123   1.47017
 Alpha virt. eigenvalues --    1.47020   1.48133   1.50302   1.50305   1.57574
 Alpha virt. eigenvalues --    1.57575   1.58174   1.59068   1.65627   1.65628
 Alpha virt. eigenvalues --    1.77137   1.77137   1.78385   1.78387   1.88769
 Alpha virt. eigenvalues --    1.89408   1.90949   1.90950   1.92475   1.95716
 Alpha virt. eigenvalues --    2.02042   2.02043   2.08769   2.26753   2.27075
 Alpha virt. eigenvalues --    2.27077   2.28938   2.35834   2.35837   2.36630
 Alpha virt. eigenvalues --    2.36630   2.47257   2.52788   2.59884   2.62535
 Alpha virt. eigenvalues --    2.62535   2.68285   2.69098   2.69099   2.74578
 Alpha virt. eigenvalues --    2.76233   2.76233   2.80207   2.80208   2.81174
 Alpha virt. eigenvalues --    2.81174   2.89933   2.90674   2.90675   2.99762
 Alpha virt. eigenvalues --    3.02096   3.02629   3.02639   3.03541   3.04327
 Alpha virt. eigenvalues --    3.04327   3.05513   3.05514   3.11238   3.11240
 Alpha virt. eigenvalues --    3.11743   3.11745   3.13566   3.17451   3.17452
 Alpha virt. eigenvalues --    3.22598   3.29353   3.29356   3.30765   3.30765
 Alpha virt. eigenvalues --    3.31427   3.31450   3.32330   3.39323   3.39327
 Alpha virt. eigenvalues --    3.40602   3.40603   3.42757   3.49711   3.49712
 Alpha virt. eigenvalues --    3.52814   3.52815   3.53982   3.57895   3.60129
 Alpha virt. eigenvalues --    3.67970   3.74282   3.74498   3.75383   3.75383
 Alpha virt. eigenvalues --    3.77087   3.77282   3.77282   3.79357   3.79813
 Alpha virt. eigenvalues --    3.81477   3.81478   3.86765   3.86767   3.88533
 Alpha virt. eigenvalues --    3.88534   3.97219   3.97220   4.04687   4.08620
 Alpha virt. eigenvalues --    4.08620   4.12522   4.13467   4.13467   4.18690
 Alpha virt. eigenvalues --    4.22404   4.22404   4.22474   4.26766   4.26767
 Alpha virt. eigenvalues --    4.30149   4.30150   4.30421   4.30421   4.30493
 Alpha virt. eigenvalues --    4.47613   4.47613   4.55135   4.59358   4.64097
 Alpha virt. eigenvalues --    4.64097   4.64952   4.64953   4.67354   4.75681
 Alpha virt. eigenvalues --    4.75681   4.75933   4.77260   4.77262   4.81310
 Alpha virt. eigenvalues --    4.87392   4.98800   4.98801   5.05552   5.12107
 Alpha virt. eigenvalues --    5.12107   5.19307   5.19682   5.19683   5.33279
 Alpha virt. eigenvalues --    5.33280   5.44548   5.44665   5.53191   5.53195
 Alpha virt. eigenvalues --    5.58612   5.77264   5.77264   5.81391   6.16420
 Alpha virt. eigenvalues --    6.16421   6.20609   6.79936  22.40097  23.14656
 Alpha virt. eigenvalues --   23.14656  23.24308  23.24308  24.10630
          Condensed to atoms (all electrons):
               1          2          3          4          5          6
     1  C    4.843146   0.540300  -0.067288  -0.025088  -0.067288   0.540300
     2  C    0.540300   4.842769   0.540357  -0.067288  -0.025091  -0.067296
     3  C   -0.067288   0.540357   4.842769   0.540300  -0.067296  -0.025091
     4  C   -0.025088  -0.067288   0.540300   4.843146   0.540300  -0.067288
     5  C   -0.067288  -0.025091  -0.067296   0.540300   4.842769   0.540357
     6  C    0.540300  -0.067296  -0.025091  -0.067288   0.540357   4.842769
     7  H    0.405195  -0.026526   0.004616   0.000131   0.004616  -0.026526
     8  H    0.004592  -0.026439   0.405059  -0.026427   0.004595   0.000140
     9  H    0.000131   0.004616  -0.026526   0.405195  -0.026526   0.004616
    10  H    0.004592   0.000140   0.004595  -0.026427   0.405059  -0.026439
    11  H   -0.026427   0.004595   0.000140   0.004592  -0.026439   0.405059
    12  H   -0.026427   0.405059  -0.026439   0.004592   0.000140   0.004595
               7          8          9         10         11         12
     1  C    0.405195   0.004592   0.000131   0.004592  -0.026427  -0.026427
     2  C   -0.026526  -0.026439   0.004616   0.000140   0.004595   0.405059
     3  C    0.004616   0.405059  -0.026526   0.004595   0.000140  -0.026439
     4  C    0.000131  -0.026427   0.405195  -0.026427   0.004592   0.004592
     5  C    0.004616   0.004595  -0.026526   0.405059  -0.026439   0.000140
     6  C   -0.026526   0.000140   0.004616  -0.026439   0.405059   0.004595
     7  H    0.520960  -0.000410   0.000102  -0.000410  -0.003572  -0.003572
     8  H   -0.000410   0.520964  -0.003572  -0.000410   0.000102  -0.003562
     9  H    0.000102  -0.003572   0.520960  -0.003572  -0.000410  -0.000410
    10  H   -0.000410  -0.000410  -0.003572   0.520964  -0.003562   0.000102
    11  H   -0.003572   0.000102  -0.000410  -0.003562   0.520964  -0.000410
    12  H   -0.003572  -0.003562  -0.000410   0.000102  -0.000410   0.520964
 Mulliken charges:
               1
     1  C   -0.125739
     2  C   -0.125197
     3  C   -0.125197
     4  C   -0.125739
     5  C   -0.125197
     6  C   -0.125197
     7  H    0.125396
     8  H    0.125368
     9  H    0.125396
    10  H    0.125368
    11  H    0.125368
    12  H    0.125368
 Sum of Mulliken charges =  -0.00000
 Mulliken charges with hydrogens summed into heavy atoms:
               1
     1  C   -0.000342
     2  C    0.000171
     3  C    0.000171
     4  C   -0.000342
     5  C    0.000171
     6  C    0.000171
 Electronic spatial extent (au):  <R**2>=            457.1668
 Charge=             -0.0000 electrons
 Dipole moment (field-independent basis, Debye):
    X=             -0.0000    Y=              0.0000    Z=              0.0000  Tot=              0.0000
 Quadrupole moment (field-independent basis, Debye-Ang):
   XX=            -32.2341   YY=            -32.2344   ZZ=            -39.7717
   XY=              0.0000   XZ=             -0.0000   YZ=              0.0000
 Traceless Quadrupole moment (field-independent basis, Debye-Ang):
   XX=              2.5126   YY=              2.5124   ZZ=             -5.0250
   XY=              0.0000   XZ=             -0.0000   YZ=              0.0000
 Octapole moment (field-independent basis, Debye-Ang**2):
  XXX=             -0.0000  YYY=             -0.0000  ZZZ=              0.0000  XYY=              0.0000
  XXY=              0.0000  XXZ=              0.0000  XZZ=             -0.0000  YZZ=              0.0000
  YYZ=             -0.0000  XYZ=              0.0000
 Hexadecapole moment (field-independent basis, Debye-Ang**3):
 XXXX=           -275.7152 YYYY=           -275.7164 ZZZZ=            -47.7256 XXXY=             -0.0000
 XXXZ=             -0.0000 YYYX=              0.0000 YYYZ=              0.0000 ZZZX=             -0.0000
 ZZZY=              0.0000 XXYY=            -91.9046 XXZZ=            -63.8936 YYZZ=            -63.8944
 XXYZ=              0.0000 YYXZ=             -0.0000 ZZXY=              0.0000
 N-N= 2.040565142588D+02 E-N=-9.465709231227D+02  KE= 2.310966970980D+02
 Running external command "gaunbo6 R"
         input file       "/scratch/wang/Ph.gjf-3523432/Gau-433.EIn"
         output file      "/scratch/wang/Ph.gjf-3523432/Gau-433.EOu"
         message file     "/scratch/wang/Ph.gjf-3523432/Gau-433.EMs"
         fchk file        "/scratch/wang/Ph.gjf-3523432/Gau-433.EFC"
         mat. el file     "/scratch/wang/Ph.gjf-3523432/Gau-433.EUF"

 Writing Wrt12E file "/scratch/wang/Ph.gjf-3523432/Gau-433.EUF"
 Gaussian matrix elements                                         Version   1 NLab= 7 Len12L=8 Len4L=8
 Write GAUSSIAN SCALARS               from file   501 offset           0 to matrix element file.
 Write OVERLAP                        from file   514 offset           0 to matrix element file.
 Write CORE HAMILTONIAN ALPHA         from file   515 offset           0 to matrix element file.
 Write CORE HAMILTONIAN BETA          from file   515 offset       36585 to matrix element file.
 Write KINETIC ENERGY                 from file   516 offset           0 to matrix element file.
 Write ORTHOGONAL BASIS               from file   685 offset           0 to matrix element file.
 Write DIPOLE INTEGRALS               from file   518 offset           0 to matrix element file.
 Array DIP VEL INTEGRALS               on  file    572 does not exist.
 Array R X DEL INTEGRALS               on  file    572 does not exist.
 Write ALPHA ORBITAL ENERGIES         from file     0 offset           0 to matrix element file.
 Write ALPHA MO COEFFICIENTS          from file 10524 offset           0 to matrix element file.
 Write ALPHA DENSITY MATRIX           from file     0 offset           0 to matrix element file.
 Write ALPHA SCF DENSITY MATRIX       from file 10528 offset           0 to matrix element file.
 Write ALPHA FOCK MATRIX              from file 10536 offset           0 to matrix element file.
 No 2e integrals to process.
 Perform NBO analysis...

 *********************************** NBO 6.0 ***********************************
             N A T U R A L   A T O M I C   O R B I T A L   A N D
          N A T U R A L   B O N D   O R B I T A L   A N A L Y S I S
 ***************** Universidad Aut&#243;noma de Madrid (100961) ****************
  (c) Copyright 1996-2016 Board of Regents of the University of Wisconsin System
      on behalf of the Theoretical Chemistry Institute.  All rights reserved.

          Cite this program as:

          NBO 6.0.  E. D. Glendening, J. K. Badenhoop, A. E. Reed,
          J. E. Carpenter, J. A. Bohmann, C. M. Morales, C. R. Landis,
          and F. Weinhold (Theoretical Chemistry Institute, University
          of Wisconsin, Madison, WI, 2013); http://nbo6.chem.wisc.edu/

       /AONAO  / : Write the AO to NAO transformation to lfn33
       /BNDIDX / : Print bond indices based on the NAO density matrix

 Filename set to /scratch/wang/Ph.gjf-3523432/Gau-433

 Job title:  optimized


 NATURAL POPULATIONS:  Natural atomic orbital occupancies

  NAO Atom No lang   Type(AO)    Occupancy      Energy
 -------------------------------------------------------
   1    C  1  s      Cor( 1s)     1.99999     -10.17661
   2    C  1  s      Val( 2s)     0.98025      -0.12779
   3    C  1  s      Ryd( 3s)     0.00079       1.62339
   4    C  1  s      Ryd( 4s)     0.00007       1.99361
   5    C  1  s      Ryd( 5s)     0.00000      20.14140
   6    C  1  px     Val( 2p)     1.04644      -0.01082
   7    C  1  px     Ryd( 3p)     0.00287       0.95146
   8    C  1  px     Ryd( 4p)     0.00012       2.17097
   9    C  1  py     Val( 2p)     1.16687      -0.04052
  10    C  1  py     Ryd( 3p)     0.00491       1.13964
  11    C  1  py     Ryd( 4p)     0.00016       2.01496
  12    C  1  pz     Val( 2p)     0.99718      -0.11116
  13    C  1  pz     Ryd( 3p)     0.00136       0.67459
  14    C  1  pz     Ryd( 4p)     0.00024       1.24690
  15    C  1  dxy    Ryd( 3d)     0.00196       2.09070
  16    C  1  dxy    Ryd( 4d)     0.00033       4.14401
  17    C  1  dxz    Ryd( 4d)     0.00006       1.41924
  18    C  1  dxz    Ryd( 3d)     0.00021       3.23064
  19    C  1  dyz    Ryd( 3d)     0.00030       1.41897
  20    C  1  dyz    Ryd( 4d)     0.00004       3.20175
  21    C  1  dx2y2  Ryd( 3d)     0.00122       2.57115
  22    C  1  dx2y2  Ryd( 4d)     0.00091       3.81255
  23    C  1  dz2    Ryd( 3d)     0.00142       1.90811
  24    C  1  dz2    Ryd( 4d)     0.00002       3.66574
  25    C  1  f(0)   Ryd( 4f)     0.00042       3.22884
  26    C  1  f(c1)  Ryd( 4f)     0.00033       3.44940
  27    C  1  f(s1)  Ryd( 4f)     0.00052       3.37087
  28    C  1  f(c2)  Ryd( 4f)     0.00002       3.26260
  29    C  1  f(s2)  Ryd( 4f)     0.00000       3.36028
  30    C  1  f(c3)  Ryd( 4f)     0.00022       3.84096
  31    C  1  f(s3)  Ryd( 4f)     0.00071       4.00045

  32    C  2  s      Cor( 1s)     1.99999     -10.17661
  33    C  2  s      Val( 2s)     0.97950      -0.12742
  34    C  2  s      Ryd( 3s)     0.00078       1.62607
  35    C  2  s      Ryd( 4s)     0.00007       1.98706
  36    C  2  s      Ryd( 5s)     0.00000      20.14200
  37    C  2  px     Val( 2p)     1.13670      -0.03334
  38    C  2  px     Ryd( 3p)     0.00449       1.09379
  39    C  2  px     Ryd( 4p)     0.00015       2.06342
  40    C  2  py     Val( 2p)     1.07611      -0.01803
  41    C  2  py     Ryd( 3p)     0.00349       1.01051
  42    C  2  py     Ryd( 4p)     0.00013       2.13591
  43    C  2  pz     Val( 2p)     0.99717      -0.11109
  44    C  2  pz     Ryd( 3p)     0.00135       0.67744
  45    C  2  pz     Ryd( 4p)     0.00023       1.24466
  46    C  2  dxy    Ryd( 3d)     0.00139       2.43715
  47    C  2  dxy    Ryd( 4d)     0.00075       3.95954
  48    C  2  dxz    Ryd( 3d)     0.00025       1.39876
  49    C  2  dxz    Ryd( 4d)     0.00007       3.21945
  50    C  2  dyz    Ryd( 4d)     0.00012       1.40744
  51    C  2  dyz    Ryd( 3d)     0.00016       3.23312
  52    C  2  dx2y2  Ryd( 3d)     0.00173       2.20857
  53    C  2  dx2y2  Ryd( 4d)     0.00048       4.10763
  54    C  2  dz2    Ryd( 3d)     0.00142       1.86346
  55    C  2  dz2    Ryd( 4d)     0.00002       3.68321
  56    C  2  f(0)   Ryd( 4f)     0.00042       3.22313
  57    C  2  f(c1)  Ryd( 4f)     0.00047       3.39044
  58    C  2  f(s1)  Ryd( 4f)     0.00038       3.42452
  59    C  2  f(c2)  Ryd( 4f)     0.00001       3.32552
  60    C  2  f(s2)  Ryd( 4f)     0.00002       3.27708
  61    C  2  f(c3)  Ryd( 4f)     0.00023       3.82615
  62    C  2  f(s3)  Ryd( 4f)     0.00071       3.99913

  63    C  3  s      Cor( 1s)     1.99999     -10.17661
  64    C  3  s      Val( 2s)     0.97950      -0.12742
  65    C  3  s      Ryd( 3s)     0.00078       1.62607
  66    C  3  s      Ryd( 4s)     0.00007       1.98706
  67    C  3  s      Ryd( 5s)     0.00000      20.14200
  68    C  3  px     Val( 2p)     1.13670      -0.03334
  69    C  3  px     Ryd( 3p)     0.00449       1.09379
  70    C  3  px     Ryd( 4p)     0.00015       2.06342
  71    C  3  py     Val( 2p)     1.07611      -0.01803
  72    C  3  py     Ryd( 3p)     0.00349       1.01051
  73    C  3  py     Ryd( 4p)     0.00013       2.13591
  74    C  3  pz     Val( 2p)     0.99717      -0.11109
  75    C  3  pz     Ryd( 3p)     0.00135       0.67744
  76    C  3  pz     Ryd( 4p)     0.00023       1.24466
  77    C  3  dxy    Ryd( 3d)     0.00139       2.43715
  78    C  3  dxy    Ryd( 4d)     0.00075       3.95954
  79    C  3  dxz    Ryd( 3d)     0.00025       1.39876
  80    C  3  dxz    Ryd( 4d)     0.00007       3.21945
  81    C  3  dyz    Ryd( 4d)     0.00012       1.40744
  82    C  3  dyz    Ryd( 3d)     0.00016       3.23312
  83    C  3  dx2y2  Ryd( 3d)     0.00173       2.20857
  84    C  3  dx2y2  Ryd( 4d)     0.00048       4.10763
  85    C  3  dz2    Ryd( 3d)     0.00142       1.86346
  86    C  3  dz2    Ryd( 4d)     0.00002       3.68321
  87    C  3  f(0)   Ryd( 4f)     0.00042       3.22313
  88    C  3  f(c1)  Ryd( 4f)     0.00047       3.39044
  89    C  3  f(s1)  Ryd( 4f)     0.00038       3.42452
  90    C  3  f(c2)  Ryd( 4f)     0.00001       3.32552
  91    C  3  f(s2)  Ryd( 4f)     0.00002       3.27708
  92    C  3  f(c3)  Ryd( 4f)     0.00023       3.82615
  93    C  3  f(s3)  Ryd( 4f)     0.00071       3.99913

  94    C  4  s      Cor( 1s)     1.99999     -10.17661
  95    C  4  s      Val( 2s)     0.98025      -0.12779
  96    C  4  s      Ryd( 3s)     0.00079       1.62339
  97    C  4  s      Ryd( 4s)     0.00007       1.99361
  98    C  4  s      Ryd( 5s)     0.00000      20.14140
  99    C  4  px     Val( 2p)     1.04644      -0.01082
 100    C  4  px     Ryd( 3p)     0.00287       0.95146
 101    C  4  px     Ryd( 4p)     0.00012       2.17097
 102    C  4  py     Val( 2p)     1.16687      -0.04052
 103    C  4  py     Ryd( 3p)     0.00491       1.13964
 104    C  4  py     Ryd( 4p)     0.00016       2.01496
 105    C  4  pz     Val( 2p)     0.99718      -0.11116
 106    C  4  pz     Ryd( 3p)     0.00136       0.67459
 107    C  4  pz     Ryd( 4p)     0.00024       1.24690
 108    C  4  dxy    Ryd( 3d)     0.00196       2.09070
 109    C  4  dxy    Ryd( 4d)     0.00033       4.14401
 110    C  4  dxz    Ryd( 4d)     0.00006       1.41924
 111    C  4  dxz    Ryd( 3d)     0.00021       3.23064
 112    C  4  dyz    Ryd( 3d)     0.00030       1.41897
 113    C  4  dyz    Ryd( 4d)     0.00004       3.20175
 114    C  4  dx2y2  Ryd( 3d)     0.00122       2.57115
 115    C  4  dx2y2  Ryd( 4d)     0.00091       3.81255
 116    C  4  dz2    Ryd( 3d)     0.00142       1.90811
 117    C  4  dz2    Ryd( 4d)     0.00002       3.66574
 118    C  4  f(0)   Ryd( 4f)     0.00042       3.22884
 119    C  4  f(c1)  Ryd( 4f)     0.00033       3.44940
 120    C  4  f(s1)  Ryd( 4f)     0.00052       3.37087
 121    C  4  f(c2)  Ryd( 4f)     0.00002       3.26260
 122    C  4  f(s2)  Ryd( 4f)     0.00000       3.36028
 123    C  4  f(c3)  Ryd( 4f)     0.00022       3.84096
 124    C  4  f(s3)  Ryd( 4f)     0.00071       4.00045

 125    C  5  s      Cor( 1s)     1.99999     -10.17661
 126    C  5  s      Val( 2s)     0.97950      -0.12742
 127    C  5  s      Ryd( 3s)     0.00078       1.62607
 128    C  5  s      Ryd( 4s)     0.00007       1.98706
 129    C  5  s      Ryd( 5s)     0.00000      20.14200
 130    C  5  px     Val( 2p)     1.13670      -0.03334
 131    C  5  px     Ryd( 3p)     0.00449       1.09379
 132    C  5  px     Ryd( 4p)     0.00015       2.06342
 133    C  5  py     Val( 2p)     1.07611      -0.01803
 134    C  5  py     Ryd( 3p)     0.00349       1.01051
 135    C  5  py     Ryd( 4p)     0.00013       2.13591
 136    C  5  pz     Val( 2p)     0.99717      -0.11109
 137    C  5  pz     Ryd( 3p)     0.00135       0.67744
 138    C  5  pz     Ryd( 4p)     0.00023       1.24466
 139    C  5  dxy    Ryd( 3d)     0.00139       2.43715
 140    C  5  dxy    Ryd( 4d)     0.00075       3.95954
 141    C  5  dxz    Ryd( 3d)     0.00025       1.39876
 142    C  5  dxz    Ryd( 4d)     0.00007       3.21945
 143    C  5  dyz    Ryd( 4d)     0.00012       1.40744
 144    C  5  dyz    Ryd( 3d)     0.00016       3.23312
 145    C  5  dx2y2  Ryd( 3d)     0.00173       2.20857
 146    C  5  dx2y2  Ryd( 4d)     0.00048       4.10763
 147    C  5  dz2    Ryd( 3d)     0.00142       1.86346
 148    C  5  dz2    Ryd( 4d)     0.00002       3.68321
 149    C  5  f(0)   Ryd( 4f)     0.00042       3.22313
 150    C  5  f(c1)  Ryd( 4f)     0.00047       3.39044
 151    C  5  f(s1)  Ryd( 4f)     0.00038       3.42452
 152    C  5  f(c2)  Ryd( 4f)     0.00001       3.32552
 153    C  5  f(s2)  Ryd( 4f)     0.00002       3.27708
 154    C  5  f(c3)  Ryd( 4f)     0.00023       3.82615
 155    C  5  f(s3)  Ryd( 4f)     0.00071       3.99913

 156    C  6  s      Cor( 1s)     1.99999     -10.17661
 157    C  6  s      Val( 2s)     0.97950      -0.12742
 158    C  6  s      Ryd( 3s)     0.00078       1.62607
 159    C  6  s      Ryd( 4s)     0.00007       1.98706
 160    C  6  s      Ryd( 5s)     0.00000      20.14200
 161    C  6  px     Val( 2p)     1.13670      -0.03334
 162    C  6  px     Ryd( 3p)     0.00449       1.09379
 163    C  6  px     Ryd( 4p)     0.00015       2.06342
 164    C  6  py     Val( 2p)     1.07611      -0.01803
 165    C  6  py     Ryd( 3p)     0.00349       1.01051
 166    C  6  py     Ryd( 4p)     0.00013       2.13591
 167    C  6  pz     Val( 2p)     0.99717      -0.11109
 168    C  6  pz     Ryd( 3p)     0.00135       0.67744
 169    C  6  pz     Ryd( 4p)     0.00023       1.24466
 170    C  6  dxy    Ryd( 3d)     0.00139       2.43715
 171    C  6  dxy    Ryd( 4d)     0.00075       3.95954
 172    C  6  dxz    Ryd( 3d)     0.00025       1.39876
 173    C  6  dxz    Ryd( 4d)     0.00007       3.21945
 174    C  6  dyz    Ryd( 4d)     0.00012       1.40744
 175    C  6  dyz    Ryd( 3d)     0.00016       3.23312
 176    C  6  dx2y2  Ryd( 3d)     0.00173       2.20857
 177    C  6  dx2y2  Ryd( 4d)     0.00048       4.10763
 178    C  6  dz2    Ryd( 3d)     0.00142       1.86346
 179    C  6  dz2    Ryd( 4d)     0.00002       3.68321
 180    C  6  f(0)   Ryd( 4f)     0.00042       3.22313
 181    C  6  f(c1)  Ryd( 4f)     0.00047       3.39044
 182    C  6  f(s1)  Ryd( 4f)     0.00038       3.42452
 183    C  6  f(c2)  Ryd( 4f)     0.00001       3.32552
 184    C  6  f(s2)  Ryd( 4f)     0.00002       3.27708
 185    C  6  f(c3)  Ryd( 4f)     0.00023       3.82615
 186    C  6  f(s3)  Ryd( 4f)     0.00071       3.99913

 187    H  7  s      Val( 1s)     0.79010       0.05141
 188    H  7  s      Ryd( 2s)     0.00033       0.73928
 189    H  7  s      Ryd( 3s)     0.00007       2.20080
 190    H  7  px     Ryd( 3p)     0.00005       3.85737
 191    H  7  px     Ryd( 2p)     0.00010       2.04095
 192    H  7  py     Ryd( 2p)     0.00026       3.33484
 193    H  7  py     Ryd( 3p)     0.00007       3.43763
 194    H  7  pz     Ryd( 2p)     0.00012       3.53664
 195    H  7  pz     Ryd( 3p)     0.00006       1.52312
 196    H  7  dxy    Ryd( 3d)     0.00003       4.57617
 197    H  7  dxz    Ryd( 3d)     0.00000       3.57850
 198    H  7  dyz    Ryd( 3d)     0.00001       4.28445
 199    H  7  dx2y2  Ryd( 3d)     0.00003       4.57096
 200    H  7  dz2    Ryd( 3d)     0.00002       4.13861

 201    H  8  s      Val( 1s)     0.78939       0.05151
 202    H  8  s      Ryd( 2s)     0.00033       0.73099
 203    H  8  s      Ryd( 3s)     0.00007       2.20599
 204    H  8  px     Ryd( 2p)     0.00022       3.80475
 205    H  8  px     Ryd( 3p)     0.00009       2.70025
 206    H  8  py     Ryd( 2p)     0.00011       4.06748
 207    H  8  py     Ryd( 3p)     0.00010       2.07564
 208    H  8  pz     Ryd( 2p)     0.00009       3.82295
 209    H  8  pz     Ryd( 3p)     0.00009       1.23723
 210    H  8  dxy    Ryd( 3d)     0.00004       4.55917
 211    H  8  dxz    Ryd( 3d)     0.00001       4.09362
 212    H  8  dyz    Ryd( 3d)     0.00000       3.75206
 213    H  8  dx2y2  Ryd( 3d)     0.00004       4.55281
 214    H  8  dz2    Ryd( 3d)     0.00002       4.12560

 215    H  9  s      Val( 1s)     0.79010       0.05141
 216    H  9  s      Ryd( 2s)     0.00033       0.73928
 217    H  9  s      Ryd( 3s)     0.00007       2.20080
 218    H  9  px     Ryd( 3p)     0.00005       3.85737
 219    H  9  px     Ryd( 2p)     0.00010       2.04095
 220    H  9  py     Ryd( 2p)     0.00026       3.33484
 221    H  9  py     Ryd( 3p)     0.00007       3.43763
 222    H  9  pz     Ryd( 2p)     0.00012       3.53664
 223    H  9  pz     Ryd( 3p)     0.00006       1.52312
 224    H  9  dxy    Ryd( 3d)     0.00003       4.57617
 225    H  9  dxz    Ryd( 3d)     0.00000       3.57850
 226    H  9  dyz    Ryd( 3d)     0.00001       4.28445
 227    H  9  dx2y2  Ryd( 3d)     0.00003       4.57096
 228    H  9  dz2    Ryd( 3d)     0.00002       4.13861

 229    H 10  s      Val( 1s)     0.78939       0.05151
 230    H 10  s      Ryd( 2s)     0.00033       0.73099
 231    H 10  s      Ryd( 3s)     0.00007       2.20599
 232    H 10  px     Ryd( 2p)     0.00022       3.80475
 233    H 10  px     Ryd( 3p)     0.00009       2.70025
 234    H 10  py     Ryd( 2p)     0.00011       4.06748
 235    H 10  py     Ryd( 3p)     0.00010       2.07564
 236    H 10  pz     Ryd( 2p)     0.00009       3.82295
 237    H 10  pz     Ryd( 3p)     0.00009       1.23723
 238    H 10  dxy    Ryd( 3d)     0.00004       4.55917
 239    H 10  dxz    Ryd( 3d)     0.00001       4.09362
 240    H 10  dyz    Ryd( 3d)     0.00000       3.75206
 241    H 10  dx2y2  Ryd( 3d)     0.00004       4.55281
 242    H 10  dz2    Ryd( 3d)     0.00002       4.12560

 243    H 11  s      Val( 1s)     0.78939       0.05151
 244    H 11  s      Ryd( 2s)     0.00033       0.73099
 245    H 11  s      Ryd( 3s)     0.00007       2.20599
 246    H 11  px     Ryd( 2p)     0.00022       3.80475
 247    H 11  px     Ryd( 3p)     0.00009       2.70025
 248    H 11  py     Ryd( 2p)     0.00011       4.06748
 249    H 11  py     Ryd( 3p)     0.00010       2.07564
 250    H 11  pz     Ryd( 2p)     0.00009       3.82295
 251    H 11  pz     Ryd( 3p)     0.00009       1.23723
 252    H 11  dxy    Ryd( 3d)     0.00004       4.55917
 253    H 11  dxz    Ryd( 3d)     0.00001       4.09362
 254    H 11  dyz    Ryd( 3d)     0.00000       3.75206
 255    H 11  dx2y2  Ryd( 3d)     0.00004       4.55281
 256    H 11  dz2    Ryd( 3d)     0.00002       4.12560

 257    H 12  s      Val( 1s)     0.78939       0.05151
 258    H 12  s      Ryd( 2s)     0.00033       0.73099
 259    H 12  s      Ryd( 3s)     0.00007       2.20599
 260    H 12  px     Ryd( 2p)     0.00022       3.80475
 261    H 12  px     Ryd( 3p)     0.00009       2.70025
 262    H 12  py     Ryd( 2p)     0.00011       4.06748
 263    H 12  py     Ryd( 3p)     0.00010       2.07564
 264    H 12  pz     Ryd( 2p)     0.00009       3.82295
 265    H 12  pz     Ryd( 3p)     0.00009       1.23723
 266    H 12  dxy    Ryd( 3d)     0.00004       4.55917
 267    H 12  dxz    Ryd( 3d)     0.00001       4.09362
 268    H 12  dyz    Ryd( 3d)     0.00000       3.75206
 269    H 12  dx2y2  Ryd( 3d)     0.00004       4.55281
 270    H 12  dz2    Ryd( 3d)     0.00002       4.12560

     Population inversion found on atom  C  1
     Population inversion found on atom  C  2
     Population inversion found on atom  C  3
     Population inversion found on atom  C  4
     Population inversion found on atom  C  5
     Population inversion found on atom  C  6
     Population inversion found on atom  H  7
     Population inversion found on atom  H  8
     Population inversion found on atom  H  9
     Population inversion found on atom  H 10
     Population inversion found on atom  H 11
     Population inversion found on atom  H 12


 Summary of Natural Population Analysis:

                                     Natural Population
             Natural    ---------------------------------------------
  Atom No    Charge        Core      Valence    Rydberg      Total
 --------------------------------------------------------------------
    C  1   -0.20994      1.99999     4.19074    0.01921     6.20994
    C  2   -0.20880      1.99999     4.18948    0.01933     6.20880
    C  3   -0.20880      1.99999     4.18948    0.01933     6.20880
    C  4   -0.20994      1.99999     4.19074    0.01921     6.20994
    C  5   -0.20880      1.99999     4.18948    0.01933     6.20880
    C  6   -0.20880      1.99999     4.18948    0.01933     6.20880
    H  7    0.20873      0.00000     0.79010    0.00116     0.79127
    H  8    0.20940      0.00000     0.78939    0.00121     0.79060
    H  9    0.20873      0.00000     0.79010    0.00116     0.79127
    H 10    0.20940      0.00000     0.78939    0.00121     0.79060
    H 11    0.20940      0.00000     0.78939    0.00121     0.79060
    H 12    0.20940      0.00000     0.78939    0.00121     0.79060
 ====================================================================
 * Total *  0.00000     11.99992    29.87719    0.12290    42.00000

                                 Natural Population
 ---------------------------------------------------------
   Core                      11.99992 ( 99.9993% of   12)
   Valence                   29.87719 ( 99.5906% of   30)
   Natural Minimal Basis     41.87710 ( 99.7074% of   42)
   Natural Rydberg Basis      0.12290 (  0.2926% of   42)
 ---------------------------------------------------------

    Atom No         Natural Electron Configuration
 ----------------------------------------------------------------------------
      C  1      [core]2s( 0.98)2p( 3.21)3p( 0.01)3d( 0.01)
      C  2      [core]2s( 0.98)2p( 3.21)3p( 0.01)
      C  3      [core]2s( 0.98)2p( 3.21)3p( 0.01)
      C  4      [core]2s( 0.98)2p( 3.21)3p( 0.01)3d( 0.01)
      C  5      [core]2s( 0.98)2p( 3.21)3p( 0.01)
      C  6      [core]2s( 0.98)2p( 3.21)3p( 0.01)
      H  7            1s( 0.79)
      H  8            1s( 0.79)
      H  9            1s( 0.79)
      H 10            1s( 0.79)
      H 11            1s( 0.79)
      H 12            1s( 0.79)


 Wiberg bond index matrix in the NAO basis:

     Atom    1       2       3       4       5       6       7       8       9
     ---- ------  ------  ------  ------  ------  ------  ------  ------  ------
   1.  C  0.0000  1.4426  0.0095  0.1151  0.0095  1.4426  0.9248  0.0096  0.0007
   2.  C  1.4426  0.0000  1.4427  0.0095  0.1152  0.0096  0.0030  0.0031  0.0096
   3.  C  0.0095  1.4427  0.0000  1.4426  0.0096  0.1152  0.0096  0.9244  0.0030
   4.  C  0.1151  0.0095  1.4426  0.0000  1.4426  0.0095  0.0007  0.0030  0.9248
   5.  C  0.0095  0.1152  0.0096  1.4426  0.0000  1.4427  0.0096  0.0096  0.0030
   6.  C  1.4426  0.0096  0.1152  0.0095  1.4427  0.0000  0.0030  0.0007  0.0096
   7.  H  0.9248  0.0030  0.0096  0.0007  0.0096  0.0030  0.0000  0.0004  0.0006
   8.  H  0.0096  0.0031  0.9244  0.0030  0.0096  0.0007  0.0004  0.0000  0.0029
   9.  H  0.0007  0.0096  0.0030  0.9248  0.0030  0.0096  0.0006  0.0029  0.0000
  10.  H  0.0096  0.0007  0.0096  0.0030  0.9244  0.0031  0.0004  0.0004  0.0029
  11.  H  0.0030  0.0096  0.0007  0.0096  0.0031  0.9244  0.0029  0.0006  0.0004
  12.  H  0.0030  0.9244  0.0031  0.0096  0.0007  0.0096  0.0029  0.0029  0.0004

     Atom   10      11      12
     ---- ------  ------  ------
   1.  C  0.0096  0.0030  0.0030
   2.  C  0.0007  0.0096  0.9244
   3.  C  0.0096  0.0007  0.0031
   4.  C  0.0030  0.0096  0.0096
   5.  C  0.9244  0.0031  0.0007
   6.  C  0.0031  0.9244  0.0096
   7.  H  0.0004  0.0029  0.0029
   8.  H  0.0004  0.0006  0.0029
   9.  H  0.0029  0.0004  0.0004
  10.  H  0.0000  0.0029  0.0006
  11.  H  0.0029  0.0000  0.0004
  12.  H  0.0006  0.0004  0.0000


 Wiberg bond index, Totals by atom:

     Atom    1
     ---- ------
   1.  C  3.9699
   2.  C  3.9699
   3.  C  3.9699
   4.  C  3.9699
   5.  C  3.9699
   6.  C  3.9699
   7.  H  0.9578
   8.  H  0.9576
   9.  H  0.9578
  10.  H  0.9576
  11.  H  0.9576
  12.  H  0.9576


 NBI: Natural Binding Index (NCU strength parameters)

     Atom    1       2       3       4       5       6       7       8       9
     ---- ------  ------  ------  ------  ------  ------  ------  ------  ------
   1.  C  0.0000  1.2011  0.0976  0.3393  0.0976  1.2011  0.9617  0.0980  0.0268
   2.  C  1.2011  0.0000  1.2011  0.0976  0.3394  0.0980  0.0544  0.0553  0.0979
   3.  C  0.0976  1.2011  0.0000  1.2011  0.0980  0.3394  0.0979  0.9615  0.0544
   4.  C  0.3393  0.0976  1.2011  0.0000  1.2011  0.0976  0.0268  0.0544  0.9617
   5.  C  0.0976  0.3394  0.0980  1.2011  0.0000  1.2011  0.0979  0.0980  0.0544
   6.  C  1.2011  0.0980  0.3394  0.0976  1.2011  0.0000  0.0544  0.0268  0.0979
   7.  H  0.9617  0.0544  0.0979  0.0268  0.0979  0.0544  0.0000  0.0191  0.0238
   8.  H  0.0980  0.0553  0.9615  0.0544  0.0980  0.0268  0.0191  0.0000  0.0542
   9.  H  0.0268  0.0979  0.0544  0.9617  0.0544  0.0979  0.0238  0.0542  0.0000
  10.  H  0.0980  0.0268  0.0980  0.0544  0.9615  0.0553  0.0191  0.0191  0.0542
  11.  H  0.0544  0.0980  0.0268  0.0980  0.0553  0.9615  0.0542  0.0239  0.0191
  12.  H  0.0544  0.9615  0.0553  0.0980  0.0268  0.0980  0.0542  0.0541  0.0191

     Atom   10      11      12
     ---- ------  ------  ------
   1.  C  0.0980  0.0544  0.0544
   2.  C  0.0268  0.0980  0.9615
   3.  C  0.0980  0.0268  0.0553
   4.  C  0.0544  0.0980  0.0980
   5.  C  0.9615  0.0553  0.0268
   6.  C  0.0553  0.9615  0.0980
   7.  H  0.0191  0.0542  0.0542
   8.  H  0.0191  0.0239  0.0541
   9.  H  0.0542  0.0191  0.0191
  10.  H  0.0000  0.0541  0.0239
  11.  H  0.0541  0.0000  0.0191
  12.  H  0.0239  0.0191  0.0000


 NATURAL BOND ORBITAL ANALYSIS:

                            Occupancies       Lewis Structure    Low   High
         Max    Occ     -------------------  -----------------   occ   occ
  Cycle  Ctr   Thresh    Lewis   non-Lewis     CR  BD  nC  LP    (L)   (NL)
 ============================================================================
    1     2     1.90    38.77231   3.22769      6  12   0   3     3      3
    2     2     1.66    40.76906   1.23094      6  15   0   0     0      3
 ----------------------------------------------------------------------------

 Structure accepted: No low occupancy Lewis orbitals

 -------------------------------------------------------
   Core                     11.99992 ( 99.999% of  12)
   Valence Lewis            28.76914 ( 95.897% of  30)
  ==================      =============================
   Total Lewis              40.76906 ( 97.069% of  42)
  -----------------------------------------------------
   Valence non-Lewis         1.16571 (  2.776% of  42)
   Rydberg non-Lewis         0.06523 (  0.155% of  42)
  ==================      =============================
   Total non-Lewis           1.23094 (  2.931% of  42)
 -------------------------------------------------------


     (Occupancy)   Bond orbital / Coefficients / Hybrids
 ------------------ Lewis ------------------------------------------------------
   1. (1.99999) CR ( 1) C  1            s(100.00%)
                                         1.0000  0.0000  0.0000  0.0000  0.0000
                                         0.0000  0.0000  0.0000  0.0000  0.0000
                                         0.0000  0.0000  0.0000  0.0000  0.0000
                                         0.0000  0.0000  0.0000  0.0000  0.0000
                                         0.0000  0.0000  0.0000  0.0000  0.0000
                                         0.0000  0.0000  0.0000  0.0000  0.0000
                                         0.0000
   2. (1.99999) CR ( 1) C  2            s(100.00%)
                                         1.0000  0.0000  0.0000  0.0000  0.0000
                                         0.0000  0.0000  0.0000  0.0000  0.0000
                                         0.0000  0.0000  0.0000  0.0000  0.0000
                                         0.0000  0.0000  0.0000  0.0000  0.0000
                                         0.0000  0.0000  0.0000  0.0000  0.0000
                                         0.0000  0.0000  0.0000  0.0000  0.0000
                                         0.0000
   3. (1.99999) CR ( 1) C  3            s(100.00%)
                                         1.0000  0.0000  0.0000  0.0000  0.0000
                                         0.0000  0.0000  0.0000  0.0000  0.0000
                                         0.0000  0.0000  0.0000  0.0000  0.0000
                                         0.0000  0.0000  0.0000  0.0000  0.0000
                                         0.0000  0.0000  0.0000  0.0000  0.0000
                                         0.0000  0.0000  0.0000  0.0000  0.0000
                                         0.0000
   4. (1.99999) CR ( 1) C  4            s(100.00%)
                                         1.0000  0.0000  0.0000  0.0000  0.0000
                                         0.0000  0.0000  0.0000  0.0000  0.0000
                                         0.0000  0.0000  0.0000  0.0000  0.0000
                                         0.0000  0.0000  0.0000  0.0000  0.0000
                                         0.0000  0.0000  0.0000  0.0000  0.0000
                                         0.0000  0.0000  0.0000  0.0000  0.0000
                                         0.0000
   5. (1.99999) CR ( 1) C  5            s(100.00%)
                                         1.0000  0.0000  0.0000  0.0000  0.0000
                                         0.0000  0.0000  0.0000  0.0000  0.0000
                                         0.0000  0.0000  0.0000  0.0000  0.0000
                                         0.0000  0.0000  0.0000  0.0000  0.0000
                                         0.0000  0.0000  0.0000  0.0000  0.0000
                                         0.0000  0.0000  0.0000  0.0000  0.0000
                                         0.0000
   6. (1.99999) CR ( 1) C  6            s(100.00%)
                                         1.0000  0.0000  0.0000  0.0000  0.0000
                                         0.0000  0.0000  0.0000  0.0000  0.0000
                                         0.0000  0.0000  0.0000  0.0000  0.0000
                                         0.0000  0.0000  0.0000  0.0000  0.0000
                                         0.0000  0.0000  0.0000  0.0000  0.0000
                                         0.0000  0.0000  0.0000  0.0000  0.0000
                                         0.0000
   7. (1.98338) BD ( 1) C  1- C  2
               ( 50.04%)   0.7074* C  1 s( 35.87%)p 1.78( 63.92%)d 0.00(  0.16%)
                                                  f 0.00(  0.05%)
                                         0.0000  0.5989 -0.0074 -0.0018  0.0000
                                        -0.7057  0.0312  0.0009 -0.3743 -0.0125
                                         0.0041  0.0000  0.0000  0.0000  0.0292
                                         0.0060  0.0000  0.0000  0.0000  0.0000
                                         0.0055  0.0064 -0.0254 -0.0016  0.0000
                                         0.0126  0.0081  0.0000  0.0000 -0.0043
                                        -0.0164
               ( 49.96%)   0.7068* C  2 s( 35.87%)p 1.78( 63.92%)d 0.00(  0.16%)
                                                  f 0.00(  0.05%)
                                         0.0000  0.5989 -0.0072 -0.0019  0.0000
                                         0.6769 -0.0049  0.0032  0.4241 -0.0335
                                        -0.0026  0.0000  0.0000  0.0000  0.0190
                                         0.0083  0.0000  0.0000  0.0000  0.0000
                                         0.0221  0.0017 -0.0253 -0.0016  0.0000
                                        -0.0132 -0.0069  0.0000  0.0000 -0.0044
                                         0.0163
   8. (1.98338) BD ( 1) C  1- C  6
               ( 50.04%)   0.7074* C  1 s( 35.87%)p 1.78( 63.92%)d 0.00(  0.16%)
                                                  f 0.00(  0.05%)
                                         0.0000  0.5989 -0.0074 -0.0018  0.0000
                                         0.7057 -0.0312 -0.0009 -0.3743 -0.0125
                                         0.0041  0.0000  0.0000  0.0000 -0.0292
                                        -0.0060  0.0000  0.0000  0.0000  0.0000
                                         0.0055  0.0064 -0.0254 -0.0016  0.0000
                                        -0.0126  0.0081  0.0000  0.0000  0.0043
                                        -0.0164
               ( 49.96%)   0.7068* C  6 s( 35.87%)p 1.78( 63.92%)d 0.00(  0.16%)
                                                  f 0.00(  0.05%)
                                         0.0000  0.5989 -0.0072 -0.0019  0.0000
                                        -0.6769  0.0049 -0.0032  0.4241 -0.0335
                                        -0.0026  0.0000  0.0000  0.0000 -0.0190
                                        -0.0083  0.0000  0.0000  0.0000  0.0000
                                         0.0221  0.0017 -0.0253 -0.0016  0.0000
                                         0.0132 -0.0069  0.0000  0.0000  0.0044
                                         0.0163
   9. (1.66398) BD ( 2) C  1- C  6
               ( 50.00%)   0.7071* C  1 s(  0.00%)p 1.00( 99.94%)d 0.00(  0.02%)
                                                  f 0.00(  0.04%)
                                         0.0000  0.0000  0.0000  0.0000  0.0000
                                         0.0000  0.0000  0.0000  0.0000  0.0000
                                         0.0000  0.9994  0.0184 -0.0108  0.0000
                                         0.0000  0.0032  0.0062 -0.0124 -0.0052
                                         0.0000  0.0000  0.0000  0.0000 -0.0203
                                         0.0000  0.0000  0.0025  0.0007  0.0000
                                         0.0000
               ( 50.00%)   0.7071* C  6 s(  0.00%)p 1.00( 99.93%)d 0.00(  0.02%)
                                                  f 0.00(  0.04%)
                                         0.0000  0.0000  0.0000  0.0000  0.0000
                                         0.0000  0.0000  0.0000  0.0000  0.0000
                                         0.0000  0.9994  0.0184 -0.0106  0.0000
                                         0.0000 -0.0127 -0.0074 -0.0033  0.0022
                                         0.0000  0.0000  0.0000  0.0000 -0.0204
                                         0.0000  0.0000 -0.0018 -0.0017  0.0000
                                         0.0000
  10. (1.97944) BD ( 1) C  1- H  7
               ( 60.47%)   0.7776* C  1 s( 28.07%)p 2.56( 71.82%)d 0.00(  0.06%)
                                                  f 0.00(  0.05%)
                                         0.0000  0.5297  0.0125  0.0037 -0.0001
                                         0.0000  0.0000 -0.0000  0.8473  0.0166
                                        -0.0092  0.0000  0.0000  0.0000  0.0000
                                         0.0000  0.0000  0.0000  0.0000  0.0000
                                        -0.0145 -0.0126 -0.0136 -0.0032  0.0000
                                         0.0000 -0.0177  0.0000  0.0000 -0.0000
                                        -0.0129
               ( 39.53%)   0.6287* H  7 s( 99.96%)p 0.00(  0.04%)d 0.00(  0.00%)
                                         0.9998 -0.0010 -0.0007 -0.0000 -0.0000
                                        -0.0180  0.0058  0.0000  0.0000  0.0000
                                         0.0000  0.0000 -0.0059 -0.0004
  11. (1.98341) BD ( 1) C  2- C  3
               ( 50.00%)   0.7071* C  2 s( 35.87%)p 1.78( 63.92%)d 0.00(  0.16%)
                                                  f 0.00(  0.05%)
                                         0.0000  0.5989 -0.0073 -0.0018  0.0000
                                        -0.0286  0.0265  0.0033 -0.7983  0.0207
                                        -0.0010  0.0000  0.0000  0.0000 -0.0102
                                         0.0027  0.0000  0.0000  0.0000  0.0000
                                        -0.0275 -0.0086 -0.0257 -0.0016  0.0000
                                        -0.0008  0.0151  0.0000  0.0000  0.0042
                                         0.0165
               ( 50.00%)   0.7071* C  3 s( 35.87%)p 1.78( 63.92%)d 0.00(  0.16%)
                                                  f 0.00(  0.05%)
                                         0.0000  0.5989 -0.0073 -0.0018  0.0000
                                        -0.0286  0.0265  0.0033  0.7983 -0.0207
                                         0.0010  0.0000  0.0000  0.0000  0.0102
                                        -0.0027  0.0000  0.0000  0.0000  0.0000
                                        -0.0275 -0.0086 -0.0257 -0.0016  0.0000
                                        -0.0008 -0.0151  0.0000  0.0000  0.0042
                                        -0.0165
  12. (1.66397) BD ( 2) C  2- C  3
               ( 50.00%)   0.7071* C  2 s(  0.00%)p 1.00( 99.93%)d 0.00(  0.02%)
                                                  f 0.00(  0.04%)
                                         0.0000  0.0000  0.0000  0.0000  0.0000
                                         0.0000  0.0000  0.0000  0.0000  0.0000
                                         0.0000  0.9994  0.0184 -0.0105  0.0000
                                         0.0000  0.0091  0.0019 -0.0090 -0.0081
                                         0.0000  0.0000  0.0000  0.0000 -0.0204
                                         0.0000  0.0000 -0.0006  0.0024  0.0000
                                         0.0000
               ( 50.00%)   0.7071* C  3 s(  0.00%)p 1.00( 99.93%)d 0.00(  0.02%)
                                                  f 0.00(  0.04%)
                                         0.0000  0.0000  0.0000  0.0000  0.0000
                                         0.0000  0.0000  0.0000  0.0000  0.0000
                                         0.0000  0.9994  0.0184 -0.0105  0.0000
                                         0.0000  0.0091  0.0019  0.0090  0.0081
                                         0.0000  0.0000  0.0000  0.0000 -0.0204
                                         0.0000  0.0000 -0.0006 -0.0024  0.0000
                                         0.0000
  13. (1.97950) BD ( 1) C  2- H 12
               ( 60.51%)   0.7779* C  2 s( 28.07%)p 2.56( 71.83%)d 0.00(  0.06%)
                                                  f 0.00(  0.05%)
                                         0.0000  0.5296  0.0122  0.0037 -0.0001
                                        -0.7338 -0.0144 -0.0078  0.4236  0.0086
                                         0.0043  0.0000  0.0000  0.0000 -0.0124
                                        -0.0109  0.0000  0.0000  0.0000  0.0000
                                         0.0078  0.0064 -0.0138 -0.0032  0.0000
                                         0.0154 -0.0089  0.0000  0.0000  0.0001
                                         0.0128
               ( 39.49%)   0.6284* H 12 s( 99.96%)p 0.00(  0.03%)d 0.00(  0.00%)
                                         0.9998 -0.0009 -0.0007  0.0159 -0.0029
                                        -0.0092  0.0020  0.0000  0.0000 -0.0052
                                         0.0000  0.0000  0.0029 -0.0006
  14. (1.98338) BD ( 1) C  3- C  4
               ( 49.96%)   0.7068* C  3 s( 35.87%)p 1.78( 63.92%)d 0.00(  0.16%)
                                                  f 0.00(  0.05%)
                                         0.0000  0.5989 -0.0072 -0.0019  0.0000
                                         0.6769 -0.0049  0.0032 -0.4241  0.0335
                                         0.0026  0.0000  0.0000  0.0000 -0.0190
                                        -0.0083  0.0000  0.0000  0.0000  0.0000
                                         0.0221  0.0017 -0.0253 -0.0016  0.0000
                                        -0.0132  0.0069  0.0000  0.0000 -0.0044
                                        -0.0163
               ( 50.04%)   0.7074* C  4 s( 35.87%)p 1.78( 63.92%)d 0.00(  0.16%)
                                                  f 0.00(  0.05%)
                                         0.0000  0.5989 -0.0074 -0.0018  0.0000
                                        -0.7057  0.0312  0.0009  0.3743  0.0125
                                        -0.0041  0.0000  0.0000  0.0000 -0.0292
                                        -0.0060  0.0000  0.0000  0.0000  0.0000
                                         0.0055  0.0064 -0.0254 -0.0016  0.0000
                                         0.0126 -0.0081  0.0000  0.0000 -0.0043
                                         0.0164
  15. (1.97950) BD ( 1) C  3- H  8
               ( 60.51%)   0.7779* C  3 s( 28.07%)p 2.56( 71.83%)d 0.00(  0.06%)
                                                  f 0.00(  0.05%)
                                         0.0000  0.5296  0.0122  0.0037 -0.0001
                                        -0.7338 -0.0144 -0.0078 -0.4236 -0.0086
                                        -0.0043  0.0000  0.0000  0.0000  0.0124
                                         0.0109  0.0000  0.0000  0.0000  0.0000
                                         0.0078  0.0064 -0.0138 -0.0032  0.0000
                                         0.0154  0.0089  0.0000  0.0000  0.0001
                                        -0.0128
               ( 39.49%)   0.6284* H  8 s( 99.96%)p 0.00(  0.03%)d 0.00(  0.00%)
                                         0.9998 -0.0009 -0.0007  0.0159 -0.0029
                                         0.0092 -0.0020  0.0000  0.0000  0.0052
                                         0.0000  0.0000  0.0029 -0.0006
  16. (1.98338) BD ( 1) C  4- C  5
               ( 50.04%)   0.7074* C  4 s( 35.87%)p 1.78( 63.92%)d 0.00(  0.16%)
                                                  f 0.00(  0.05%)
                                         0.0000  0.5989 -0.0074 -0.0018  0.0000
                                         0.7057 -0.0312 -0.0009  0.3743  0.0125
                                        -0.0041  0.0000  0.0000  0.0000  0.0292
                                         0.0060  0.0000  0.0000  0.0000  0.0000
                                         0.0055  0.0064 -0.0254 -0.0016  0.0000
                                        -0.0126 -0.0081  0.0000  0.0000  0.0043
                                         0.0164
               ( 49.96%)   0.7068* C  5 s( 35.87%)p 1.78( 63.92%)d 0.00(  0.16%)
                                                  f 0.00(  0.05%)
                                         0.0000  0.5989 -0.0072 -0.0019  0.0000
                                        -0.6769  0.0049 -0.0032 -0.4241  0.0335
                                         0.0026  0.0000  0.0000  0.0000  0.0190
                                         0.0083  0.0000  0.0000  0.0000  0.0000
                                         0.0221  0.0017 -0.0253 -0.0016  0.0000
                                         0.0132  0.0069  0.0000  0.0000  0.0044
                                        -0.0163
  17. (1.66398) BD ( 2) C  4- C  5
               ( 50.00%)   0.7071* C  4 s(  0.00%)p 1.00( 99.94%)d 0.00(  0.02%)
                                                  f 0.00(  0.04%)
                                         0.0000  0.0000  0.0000  0.0000  0.0000
                                         0.0000  0.0000  0.0000  0.0000  0.0000
                                         0.0000  0.9994  0.0184 -0.0108  0.0000
                                         0.0000  0.0032  0.0062  0.0124  0.0052
                                         0.0000  0.0000  0.0000  0.0000 -0.0203
                                         0.0000  0.0000  0.0025 -0.0007  0.0000
                                         0.0000
               ( 50.00%)   0.7071* C  5 s(  0.00%)p 1.00( 99.93%)d 0.00(  0.02%)
                                                  f 0.00(  0.04%)
                                         0.0000  0.0000  0.0000  0.0000  0.0000
                                         0.0000  0.0000  0.0000  0.0000  0.0000
                                         0.0000  0.9994  0.0184 -0.0106  0.0000
                                         0.0000 -0.0127 -0.0074  0.0033 -0.0022
                                         0.0000  0.0000  0.0000  0.0000 -0.0204
                                         0.0000  0.0000 -0.0018  0.0017  0.0000
                                         0.0000
  18. (1.97944) BD ( 1) C  4- H  9
               ( 60.47%)   0.7776* C  4 s( 28.07%)p 2.56( 71.82%)d 0.00(  0.06%)
                                                  f 0.00(  0.05%)
                                         0.0000  0.5297  0.0125  0.0037 -0.0001
                                         0.0000  0.0000 -0.0000 -0.8473 -0.0166
                                         0.0092  0.0000  0.0000  0.0000 -0.0000
                                        -0.0000  0.0000  0.0000  0.0000  0.0000
                                        -0.0145 -0.0126 -0.0136 -0.0032  0.0000
                                         0.0000  0.0177  0.0000  0.0000  0.0000
                                         0.0129
               ( 39.53%)   0.6287* H  9 s( 99.96%)p 0.00(  0.04%)d 0.00(  0.00%)
                                         0.9998 -0.0010 -0.0007 -0.0000 -0.0000
                                         0.0180 -0.0058  0.0000  0.0000 -0.0000
                                         0.0000  0.0000 -0.0059 -0.0004
  19. (1.98341) BD ( 1) C  5- C  6
               ( 50.00%)   0.7071* C  5 s( 35.87%)p 1.78( 63.92%)d 0.00(  0.16%)
                                                  f 0.00(  0.05%)
                                         0.0000  0.5989 -0.0073 -0.0018  0.0000
                                         0.0286 -0.0265 -0.0033  0.7983 -0.0207
                                         0.0010  0.0000  0.0000  0.0000 -0.0102
                                         0.0027  0.0000  0.0000  0.0000  0.0000
                                        -0.0275 -0.0086 -0.0257 -0.0016  0.0000
                                         0.0008 -0.0151  0.0000  0.0000 -0.0042
                                        -0.0165
               ( 50.00%)   0.7071* C  6 s( 35.87%)p 1.78( 63.92%)d 0.00(  0.16%)
                                                  f 0.00(  0.05%)
                                         0.0000  0.5989 -0.0073 -0.0018  0.0000
                                         0.0286 -0.0265 -0.0033 -0.7983  0.0207
                                        -0.0010  0.0000  0.0000  0.0000  0.0102
                                        -0.0027  0.0000  0.0000  0.0000  0.0000
                                        -0.0275 -0.0086 -0.0257 -0.0016  0.0000
                                         0.0008  0.0151  0.0000  0.0000 -0.0042
                                         0.0165
  20. (1.97950) BD ( 1) C  5- H 10
               ( 60.51%)   0.7779* C  5 s( 28.07%)p 2.56( 71.83%)d 0.00(  0.06%)
                                                  f 0.00(  0.05%)
                                         0.0000  0.5296  0.0122  0.0037 -0.0001
                                         0.7338  0.0144  0.0078 -0.4236 -0.0086
                                        -0.0043  0.0000  0.0000  0.0000 -0.0124
                                        -0.0109  0.0000  0.0000  0.0000  0.0000
                                         0.0078  0.0064 -0.0138 -0.0032  0.0000
                                        -0.0154  0.0089  0.0000  0.0000 -0.0001
                                        -0.0128
               ( 39.49%)   0.6284* H 10 s( 99.96%)p 0.00(  0.03%)d 0.00(  0.00%)
                                         0.9998 -0.0009 -0.0007 -0.0159  0.0029
                                         0.0092 -0.0020  0.0000  0.0000 -0.0052
                                         0.0000  0.0000  0.0029 -0.0006
  21. (1.97950) BD ( 1) C  6- H 11
               ( 60.51%)   0.7779* C  6 s( 28.07%)p 2.56( 71.83%)d 0.00(  0.06%)
                                                  f 0.00(  0.05%)
                                         0.0000  0.5296  0.0122  0.0037 -0.0001
                                         0.7338  0.0144  0.0078  0.4236  0.0086
                                         0.0043  0.0000  0.0000  0.0000  0.0124
                                         0.0109  0.0000  0.0000  0.0000  0.0000
                                         0.0078  0.0064 -0.0138 -0.0032  0.0000
                                        -0.0154 -0.0089  0.0000  0.0000 -0.0001
                                         0.0128
               ( 39.49%)   0.6284* H 11 s( 99.96%)p 0.00(  0.03%)d 0.00(  0.00%)
                                         0.9998 -0.0009 -0.0007 -0.0159  0.0029
                                        -0.0092  0.0020  0.0000  0.0000  0.0052
                                         0.0000  0.0000  0.0029 -0.0006
 ---------------- non-Lewis ----------------------------------------------------
  22. (0.01470) BD*( 1) C  1- C  2
               ( 49.96%)   0.7068* C  1 s( 35.87%)p 1.78( 63.92%)d 0.00(  0.16%)
                                                  f 0.00(  0.05%)
                                         0.0000 -0.5989  0.0074  0.0018 -0.0000
                                         0.7057 -0.0312 -0.0009  0.3743  0.0125
                                        -0.0041  0.0000  0.0000  0.0000 -0.0292
                                        -0.0060  0.0000  0.0000  0.0000  0.0000
                                        -0.0055 -0.0064  0.0254  0.0016  0.0000
                                        -0.0126 -0.0081  0.0000  0.0000  0.0043
                                         0.0164
               ( 50.04%)  -0.7074* C  2 s( 35.87%)p 1.78( 63.92%)d 0.00(  0.16%)
                                                  f 0.00(  0.05%)
                                         0.0000 -0.5989  0.0072  0.0019 -0.0000
                                        -0.6769  0.0049 -0.0032 -0.4241  0.0335
                                         0.0026  0.0000  0.0000  0.0000 -0.0190
                                        -0.0083  0.0000  0.0000  0.0000  0.0000
                                        -0.0221 -0.0017  0.0253  0.0016  0.0000
                                         0.0132  0.0069  0.0000  0.0000  0.0044
                                        -0.0163
  23. (0.01470) BD*( 1) C  1- C  6
               ( 49.96%)   0.7068* C  1 s( 35.87%)p 1.78( 63.92%)d 0.00(  0.16%)
                                                  f 0.00(  0.05%)
                                         0.0000 -0.5989  0.0074  0.0018 -0.0000
                                        -0.7057  0.0312  0.0009  0.3743  0.0125
                                        -0.0041  0.0000  0.0000  0.0000  0.0292
                                         0.0060  0.0000  0.0000  0.0000  0.0000
                                        -0.0055 -0.0064  0.0254  0.0016  0.0000
                                         0.0126 -0.0081  0.0000  0.0000 -0.0043
                                         0.0164
               ( 50.04%)  -0.7074* C  6 s( 35.87%)p 1.78( 63.92%)d 0.00(  0.16%)
                                                  f 0.00(  0.05%)
                                         0.0000 -0.5989  0.0072  0.0019 -0.0000
                                         0.6769 -0.0049  0.0032 -0.4241  0.0335
                                         0.0026  0.0000  0.0000  0.0000  0.0190
                                         0.0083  0.0000  0.0000  0.0000  0.0000
                                        -0.0221 -0.0017  0.0253  0.0016  0.0000
                                        -0.0132  0.0069  0.0000  0.0000 -0.0044
                                        -0.0163
  24. (0.33267) BD*( 2) C  1- C  6
               ( 50.00%)   0.7071* C  1 s(  0.00%)p 1.00( 99.94%)d 0.00(  0.02%)
                                                  f 0.00(  0.04%)
                                         0.0000  0.0000  0.0000  0.0000  0.0000
                                         0.0000  0.0000  0.0000  0.0000  0.0000
                                         0.0000  0.9994  0.0184 -0.0108  0.0000
                                         0.0000  0.0032  0.0062 -0.0124 -0.0052
                                         0.0000  0.0000  0.0000  0.0000 -0.0203
                                         0.0000  0.0000  0.0025  0.0007  0.0000
                                         0.0000
               ( 50.00%)  -0.7071* C  6 s(  0.00%)p 1.00( 99.93%)d 0.00(  0.02%)
                                                  f 0.00(  0.04%)
                                         0.0000  0.0000  0.0000  0.0000  0.0000
                                         0.0000  0.0000  0.0000  0.0000  0.0000
                                         0.0000  0.9994  0.0184 -0.0106  0.0000
                                         0.0000 -0.0127 -0.0074 -0.0033  0.0022
                                         0.0000  0.0000  0.0000  0.0000 -0.0204
                                         0.0000  0.0000 -0.0018 -0.0017  0.0000
                                         0.0000
  25. (0.01315) BD*( 1) C  1- H  7
               ( 39.53%)   0.6287* C  1 s( 28.07%)p 2.56( 71.82%)d 0.00(  0.06%)
                                                  f 0.00(  0.05%)
                                         0.0000 -0.5297 -0.0125 -0.0037  0.0001
                                        -0.0000 -0.0000  0.0000 -0.8473 -0.0166
                                         0.0092  0.0000  0.0000  0.0000 -0.0000
                                        -0.0000  0.0000  0.0000  0.0000  0.0000
                                         0.0145  0.0126  0.0136  0.0032  0.0000
                                        -0.0000  0.0177  0.0000  0.0000  0.0000
                                         0.0129
               ( 60.47%)  -0.7776* H  7 s( 99.96%)p 0.00(  0.04%)d 0.00(  0.00%)
                                        -0.9998  0.0010  0.0007  0.0000  0.0000
                                         0.0180 -0.0058  0.0000  0.0000 -0.0000
                                         0.0000  0.0000  0.0059  0.0004
  26. (0.01475) BD*( 1) C  2- C  3
               ( 50.00%)   0.7071* C  2 s( 35.87%)p 1.78( 63.92%)d 0.00(  0.16%)
                                                  f 0.00(  0.05%)
                                         0.0000  0.5989 -0.0073 -0.0018  0.0000
                                        -0.0286  0.0265  0.0033 -0.7983  0.0207
                                        -0.0010  0.0000  0.0000  0.0000 -0.0102
                                         0.0027  0.0000  0.0000  0.0000  0.0000
                                        -0.0275 -0.0086 -0.0257 -0.0016  0.0000
                                        -0.0008  0.0151  0.0000  0.0000  0.0042
                                         0.0165
               ( 50.00%)  -0.7071* C  3 s( 35.87%)p 1.78( 63.92%)d 0.00(  0.16%)
                                                  f 0.00(  0.05%)
                                         0.0000  0.5989 -0.0073 -0.0018  0.0000
                                        -0.0286  0.0265  0.0033  0.7983 -0.0207
                                         0.0010  0.0000  0.0000  0.0000  0.0102
                                        -0.0027  0.0000  0.0000  0.0000  0.0000
                                        -0.0275 -0.0086 -0.0257 -0.0016  0.0000
                                        -0.0008 -0.0151  0.0000  0.0000  0.0042
                                        -0.0165
  27. (0.33268) BD*( 2) C  2- C  3
               ( 50.00%)   0.7071* C  2 s(  0.00%)p 1.00( 99.93%)d 0.00(  0.02%)
                                                  f 0.00(  0.04%)
                                         0.0000  0.0000  0.0000  0.0000  0.0000
                                         0.0000  0.0000  0.0000  0.0000  0.0000
                                         0.0000 -0.9994 -0.0184  0.0105  0.0000
                                         0.0000 -0.0091 -0.0019  0.0090  0.0081
                                         0.0000  0.0000  0.0000  0.0000  0.0204
                                         0.0000  0.0000  0.0006 -0.0024  0.0000
                                         0.0000
               ( 50.00%)  -0.7071* C  3 s(  0.00%)p 1.00( 99.93%)d 0.00(  0.02%)
                                                  f 0.00(  0.04%)
                                         0.0000  0.0000  0.0000  0.0000  0.0000
                                         0.0000  0.0000  0.0000  0.0000  0.0000
                                         0.0000 -0.9994 -0.0184  0.0105  0.0000
                                         0.0000 -0.0091 -0.0019 -0.0090 -0.0081
                                         0.0000  0.0000  0.0000  0.0000  0.0204
                                         0.0000  0.0000  0.0006  0.0024  0.0000
                                         0.0000
  28. (0.01327) BD*( 1) C  2- H 12
               ( 39.49%)   0.6284* C  2 s( 28.07%)p 2.56( 71.83%)d 0.00(  0.06%)
                                                  f 0.00(  0.05%)
                                         0.0000 -0.5296 -0.0122 -0.0037  0.0001
                                         0.7338  0.0144  0.0078 -0.4236 -0.0086
                                        -0.0043  0.0000  0.0000  0.0000  0.0124
                                         0.0109  0.0000  0.0000  0.0000  0.0000
                                        -0.0078 -0.0064  0.0138  0.0032  0.0000
                                        -0.0154  0.0089  0.0000  0.0000 -0.0001
                                        -0.0128
               ( 60.51%)  -0.7779* H 12 s( 99.96%)p 0.00(  0.03%)d 0.00(  0.00%)
                                        -0.9998  0.0009  0.0007 -0.0159  0.0029
                                         0.0092 -0.0020  0.0000  0.0000  0.0052
                                         0.0000  0.0000 -0.0029  0.0006
  29. (0.01470) BD*( 1) C  3- C  4
               ( 50.04%)   0.7074* C  3 s( 35.87%)p 1.78( 63.92%)d 0.00(  0.16%)
                                                  f 0.00(  0.05%)
                                         0.0000  0.5989 -0.0072 -0.0019  0.0000
                                         0.6769 -0.0049  0.0032 -0.4241  0.0335
                                         0.0026  0.0000  0.0000  0.0000 -0.0190
                                        -0.0083  0.0000  0.0000  0.0000  0.0000
                                         0.0221  0.0017 -0.0253 -0.0016  0.0000
                                        -0.0132  0.0069  0.0000  0.0000 -0.0044
                                        -0.0163
               ( 49.96%)  -0.7068* C  4 s( 35.87%)p 1.78( 63.92%)d 0.00(  0.16%)
                                                  f 0.00(  0.05%)
                                         0.0000  0.5989 -0.0074 -0.0018  0.0000
                                        -0.7057  0.0312  0.0009  0.3743  0.0125
                                        -0.0041  0.0000  0.0000  0.0000 -0.0292
                                        -0.0060  0.0000  0.0000  0.0000  0.0000
                                         0.0055  0.0064 -0.0254 -0.0016  0.0000
                                         0.0126 -0.0081  0.0000  0.0000 -0.0043
                                         0.0164
  30. (0.01327) BD*( 1) C  3- H  8
               ( 39.49%)   0.6284* C  3 s( 28.07%)p 2.56( 71.83%)d 0.00(  0.06%)
                                                  f 0.00(  0.05%)
                                         0.0000 -0.5296 -0.0122 -0.0037  0.0001
                                         0.7338  0.0144  0.0078  0.4236  0.0086
                                         0.0043  0.0000  0.0000  0.0000 -0.0124
                                        -0.0109  0.0000  0.0000  0.0000  0.0000
                                        -0.0078 -0.0064  0.0138  0.0032  0.0000
                                        -0.0154 -0.0089  0.0000  0.0000 -0.0001
                                         0.0128
               ( 60.51%)  -0.7779* H  8 s( 99.96%)p 0.00(  0.03%)d 0.00(  0.00%)
                                        -0.9998  0.0009  0.0007 -0.0159  0.0029
                                        -0.0092  0.0020  0.0000  0.0000 -0.0052
                                         0.0000  0.0000 -0.0029  0.0006
  31. (0.01470) BD*( 1) C  4- C  5
               ( 49.96%)   0.7068* C  4 s( 35.87%)p 1.78( 63.92%)d 0.00(  0.16%)
                                                  f 0.00(  0.05%)
                                         0.0000 -0.5989  0.0074  0.0018 -0.0000
                                        -0.7057  0.0312  0.0009 -0.3743 -0.0125
                                         0.0041  0.0000  0.0000  0.0000 -0.0292
                                        -0.0060  0.0000  0.0000  0.0000  0.0000
                                        -0.0055 -0.0064  0.0254  0.0016  0.0000
                                         0.0126  0.0081  0.0000  0.0000 -0.0043
                                        -0.0164
               ( 50.04%)  -0.7074* C  5 s( 35.87%)p 1.78( 63.92%)d 0.00(  0.16%)
                                                  f 0.00(  0.05%)
                                         0.0000 -0.5989  0.0072  0.0019 -0.0000
                                         0.6769 -0.0049  0.0032  0.4241 -0.0335
                                        -0.0026  0.0000  0.0000  0.0000 -0.0190
                                        -0.0083  0.0000  0.0000  0.0000  0.0000
                                        -0.0221 -0.0017  0.0253  0.0016  0.0000
                                        -0.0132 -0.0069  0.0000  0.0000 -0.0044
                                         0.0163
  32. (0.33267) BD*( 2) C  4- C  5
               ( 50.00%)   0.7071* C  4 s(  0.00%)p 1.00( 99.94%)d 0.00(  0.02%)
                                                  f 0.00(  0.04%)
                                         0.0000  0.0000  0.0000  0.0000  0.0000
                                         0.0000  0.0000  0.0000  0.0000  0.0000
                                         0.0000  0.9994  0.0184 -0.0108  0.0000
                                         0.0000  0.0032  0.0062  0.0124  0.0052
                                         0.0000  0.0000  0.0000  0.0000 -0.0203
                                         0.0000  0.0000  0.0025 -0.0007  0.0000
                                         0.0000
               ( 50.00%)  -0.7071* C  5 s(  0.00%)p 1.00( 99.93%)d 0.00(  0.02%)
[...]
   20. BD ( 1) C  5- H 10      33. BD*( 1) C  4- H  9      0.59    0.89   0.021
   20. BD ( 1) C  5- H 10      36. BD*( 1) C  6- H 11      0.59    0.89   0.021
   20. BD ( 1) C  5- H 10     115. RY ( 1) C  4            1.82    2.19   0.056
   20. BD ( 1) C  5- H 10     121. RY ( 7) C  4            0.62    2.55   0.035
   20. BD ( 1) C  5- H 10     147. RY ( 7) C  5            0.56    2.52   0.034
   20. BD ( 1) C  5- H 10     167. RY ( 1) C  6            1.84    2.16   0.056
   20. BD ( 1) C  5- H 10     173. RY ( 7) C  6            0.68    2.52   0.037
   20. BD ( 1) C  5- H 10     219. RY ( 1) H  9            0.52    1.26   0.023
   20. BD ( 1) C  5- H 10     245. RY ( 1) H 11            0.54    1.28   0.024
   21. BD ( 1) C  6- H 11      22. BD*( 1) C  1- C  2      3.94    1.03   0.057
   21. BD ( 1) C  6- H 11      25. BD*( 1) C  1- H  7      0.59    0.89   0.021
   21. BD ( 1) C  6- H 11      31. BD*( 1) C  4- C  5      3.92    1.03   0.057
   21. BD ( 1) C  6- H 11      35. BD*( 1) C  5- H 10      0.59    0.89   0.021
   21. BD ( 1) C  6- H 11      37. RY ( 1) C  1            1.82    2.19   0.056
   21. BD ( 1) C  6- H 11      43. RY ( 7) C  1            0.62    2.55   0.035
   21. BD ( 1) C  6- H 11     141. RY ( 1) C  5            1.84    2.16   0.056
   21. BD ( 1) C  6- H 11     147. RY ( 7) C  5            0.68    2.52   0.037
   21. BD ( 1) C  6- H 11     173. RY ( 7) C  6            0.56    2.52   0.034
   21. BD ( 1) C  6- H 11     193. RY ( 1) H  7            0.52    1.26   0.023
   21. BD ( 1) C  6- H 11     232. RY ( 1) H 10            0.54    1.28   0.024


 NATURAL BOND ORBITALS (Summary):

                                                     Principal Delocalizations
           NBO                 Occupancy    Energy   (geminal,vicinal,remote)
 ===============================================================================
 Molecular unit  1  (C6H6)
 ------ Lewis --------------------------------------
    1. CR ( 1) C  1             1.99999   -10.17661
    2. CR ( 1) C  2             1.99999   -10.17661
    3. CR ( 1) C  3             1.99999   -10.17661
    4. CR ( 1) C  4             1.99999   -10.17661
    5. CR ( 1) C  5             1.99999   -10.17661
    6. CR ( 1) C  6             1.99999   -10.17661
    7. BD ( 1) C  1- C  2       1.98338    -0.59061  30(v),36(v),89(v),167(v)
                                                     23(g),26(g)
    8. BD ( 1) C  1- C  6       1.98338    -0.59061  35(v),28(v),141(v),63(v)
                                                     22(g),34(g)
    9. BD ( 2) C  1- C  6       1.66398    -0.25123  32(v),27(v),64(v),142(v)
   10. BD ( 1) C  1- H  7       1.97944    -0.48081  26(v),34(v),63(v),167(v)
                                                     69(v),173(v),28(v),36(v)
                                                     43(g),245(r),258(r)
   11. BD ( 1) C  2- C  3       1.98341    -0.59058  25(v),33(v),37(v),115(v)
                                                     22(g),29(g)
   12. BD ( 2) C  2- C  3       1.66397    -0.25119  24(v),32(v),38(v),116(v)
   13. BD ( 1) C  2- H 12       1.97950    -0.48088  23(v),29(v),89(v),37(v)
                                                     95(v),43(v),25(v),30(v)
                                                     69(g),206(r),193(r)
   14. BD ( 1) C  3- C  4       1.98338    -0.59061  28(v),35(v),63(v),141(v)
                                                     31(g),26(g)
   15. BD ( 1) C  3- H  8       1.97950    -0.48088  31(v),22(v),63(v),115(v)
                                                     69(v),121(v),33(v),28(v)
                                                     95(g),258(r),219(r)
   16. BD ( 1) C  4- C  5       1.98338    -0.59061  36(v),30(v),167(v),89(v)
                                                     29(g),34(g)
   17. BD ( 2) C  4- C  5       1.66398    -0.25123  24(v),27(v),90(v),168(v)
   18. BD ( 1) C  4- H  9       1.97944    -0.48081  26(v),34(v),89(v),141(v)
                                                     95(v),147(v),30(v),35(v)
                                                     121(g),206(r),232(r)
   19. BD ( 1) C  5- C  6       1.98341    -0.59058  25(v),33(v),37(v),115(v)
                                                     23(g),31(g)
   20. BD ( 1) C  5- H 10       1.97950    -0.48088  29(v),23(v),167(v),115(v)
                                                     173(v),121(v),33(v),36(v)
                                                     147(g),245(r),219(r)
   21. BD ( 1) C  6- H 11       1.97950    -0.48088  22(v),31(v),141(v),37(v)
                                                     147(v),43(v),25(v),35(v)
                                                     173(g),232(r),193(r)
 ------ non-Lewis ----------------------------------
   22. BD*( 1) C  1- C  2       0.01470     0.54438
   23. BD*( 1) C  1- C  6       0.01470     0.54438
   24. BD*( 2) C  1- C  6       0.33267     0.02460
   25. BD*( 1) C  1- H  7       0.01315     0.41337
   26. BD*( 1) C  2- C  3       0.01475     0.54456
   27. BD*( 2) C  2- C  3       0.33268     0.02464
   28. BD*( 1) C  2- H 12       0.01327     0.41309
   29. BD*( 1) C  3- C  4       0.01470     0.54438
   30. BD*( 1) C  3- H  8       0.01327     0.41309
   31. BD*( 1) C  4- C  5       0.01470     0.54438
   32. BD*( 2) C  4- C  5       0.33267     0.02460
   33. BD*( 1) C  4- H  9       0.01315     0.41337
   34. BD*( 1) C  5- C  6       0.01475     0.54456
   35. BD*( 1) C  5- H 10       0.01327     0.41309
   36. BD*( 1) C  6- H 11       0.01327     0.41309
   37. RY ( 1) C  1             0.00586     1.70801
   38. RY ( 2) C  1             0.00117     0.52866
   39. RY ( 3) C  1             0.00110     1.27779
   40. RY ( 4) C  1             0.00065     1.77176
   41. RY ( 5) C  1             0.00058     3.59077
   42. RY ( 6) C  1             0.00032     3.34140
   43. RY ( 7) C  1             0.00011     2.07222
   44. RY ( 8) C  1             0.00006     1.74326
   45. RY ( 9) C  1             0.00002     3.47518
   46. RY (10) C  1             0.00001     3.95589
   47. RY (11) C  1             0.00001     2.08529
   48. RY (12) C  1             0.00000     3.69025
   49. RY (13) C  1             0.00000     4.28351
   50. RY (14) C  1             0.00000     2.87555
   51. RY (15) C  1             0.00000     1.27753
   52. RY (16) C  1             0.00000     1.29045
   53. RY (17) C  1             0.00000     3.23519
   54. RY (18) C  1             0.00000    14.20140
   55. RY (19) C  1             0.00000     1.50361
   56. RY (20) C  1             0.00000     2.88980
   57. RY (21) C  1             0.00000     3.23656
   58. RY (22) C  1             0.00000     3.18920
   59. RY (23) C  1             0.00000     4.05348
   60. RY (24) C  1             0.00000     3.24578
   61. RY (25) C  1             0.00000     3.38679
   62. RY (26) C  1             0.00000     6.01528
   63. RY ( 1) C  2             0.00590     1.67795
   64. RY ( 2) C  2             0.00118     0.52620
   65. RY ( 3) C  2             0.00115     1.29151
   66. RY ( 4) C  2             0.00066     1.91221
   67. RY ( 5) C  2             0.00065     3.38643
   68. RY ( 6) C  2             0.00030     3.30718
   69. RY ( 7) C  2             0.00012     2.03742
   70. RY ( 8) C  2             0.00006     1.70326
   71. RY ( 9) C  2             0.00002     3.38854
   72. RY (10) C  2             0.00001     3.89956
   73. RY (11) C  2             0.00001     2.20683
   74. RY (12) C  2             0.00000     3.81147
   75. RY (13) C  2             0.00000     4.33635
   76. RY (14) C  2             0.00000     3.09570
   77. RY (15) C  2             0.00000    14.42417
   78. RY (16) C  2             0.00000     1.47560
   79. RY (17) C  2             0.00000     2.31399
   80. RY (18) C  2             0.00000     2.04151
   81. RY (19) C  2             0.00000     1.50264
   82. RY (20) C  2             0.00000     5.86092
   83. RY (21) C  2             0.00000     3.23045
   84. RY (22) C  2             0.00000     3.37490
   85. RY (23) C  2             0.00000     3.30130
   86. RY (24) C  2             0.00000     3.34057
   87. RY (25) C  2             0.00000     3.27065
   88. RY (26) C  2             0.00000     3.23866
   89. RY ( 1) C  3             0.00590     1.67795
   90. RY ( 2) C  3             0.00118     0.52620
   91. RY ( 3) C  3             0.00115     1.29151
   92. RY ( 4) C  3             0.00066     1.91221
   93. RY ( 5) C  3             0.00065     3.38643
   94. RY ( 6) C  3             0.00030     3.30718
   95. RY ( 7) C  3             0.00012     2.03742
   96. RY ( 8) C  3             0.00006     1.70326
   97. RY ( 9) C  3             0.00002     3.38854
   98. RY (10) C  3             0.00001     3.89956
   99. RY (11) C  3             0.00001     2.20683
  100. RY (12) C  3             0.00000     3.81147
  101. RY (13) C  3             0.00000     4.33637
  102. RY (14) C  3             0.00000     3.09570
  103. RY (15) C  3             0.00000    14.13359
  104. RY (16) C  3             0.00000     1.47560
  105. RY (17) C  3             0.00000     2.31399
  106. RY (18) C  3             0.00000     2.04151
  107. RY (19) C  3             0.00000     1.50264
  108. RY (20) C  3             0.00000     5.86144
  109. RY (21) C  3             0.00000     3.23045
  110. RY (22) C  3             0.00000     3.66493
  111. RY (23) C  3             0.00000     3.30127
  112. RY (24) C  3             0.00000     3.34057
  113. RY (25) C  3             0.00000     3.27065
  114. RY (26) C  3             0.00000     3.23870
  115. RY ( 1) C  4             0.00586     1.70801
  116. RY ( 2) C  4             0.00117     0.52866
  117. RY ( 3) C  4             0.00110     1.27779
  118. RY ( 4) C  4             0.00065     1.77176
  119. RY ( 5) C  4             0.00058     3.59077
  120. RY ( 6) C  4             0.00032     3.34140
  121. RY ( 7) C  4             0.00011     2.07222
  122. RY ( 8) C  4             0.00006     1.74326
  123. RY ( 9) C  4             0.00002     3.47518
  124. RY (10) C  4             0.00001     3.95589
  125. RY (11) C  4             0.00001     2.08529
  126. RY (12) C  4             0.00000     3.69025
  127. RY (13) C  4             0.00000     4.28351
  128. RY (14) C  4             0.00000     2.87555
  129. RY (15) C  4             0.00000     1.27753
  130. RY (16) C  4             0.00000     1.29045
  131. RY (17) C  4             0.00000     3.23519
  132. RY (18) C  4             0.00000    14.77367
  133. RY (19) C  4             0.00000     1.50361
  134. RY (20) C  4             0.00000     2.88991
  135. RY (21) C  4             0.00000     3.23656
  136. RY (22) C  4             0.00000     3.18920
  137. RY (23) C  4             0.00000     3.48176
  138. RY (24) C  4             0.00000     3.24578
  139. RY (25) C  4             0.00000     3.38679
  140. RY (26) C  4             0.00000     6.01462
  141. RY ( 1) C  5             0.00590     1.67795
  142. RY ( 2) C  5             0.00118     0.52758
  143. RY ( 3) C  5             0.00115     1.29151
  144. RY ( 4) C  5             0.00066     1.91221
  145. RY ( 5) C  5             0.00065     3.38643
  146. RY ( 6) C  5             0.00030     3.30583
  147. RY ( 7) C  5             0.00012     2.03742
  148. RY ( 8) C  5             0.00006     1.70326
  149. RY ( 9) C  5             0.00002     3.38854
  150. RY (10) C  5             0.00001     3.89956
  151. RY (11) C  5             0.00001     2.20683
  152. RY (12) C  5             0.00000     3.81147
  153. RY (13) C  5             0.00000     4.33638
  154. RY (14) C  5             0.00000     3.09570
  155. RY (15) C  5             0.00000    13.95661
  156. RY (16) C  5             0.00000     1.47439
  157. RY (17) C  5             0.00000     2.31369
  158. RY (18) C  5             0.00000     2.04330
  159. RY (19) C  5             0.00000     1.50259
  160. RY (20) C  5             0.00000     5.86125
  161. RY (21) C  5             0.00000     3.23049
  162. RY (22) C  5             0.00000     3.84238
  163. RY (23) C  5             0.00000     3.30123
  164. RY (24) C  5             0.00000     3.34072
  165. RY (25) C  5             0.00000     3.27023
  166. RY (26) C  5             0.00000     3.23846
  167. RY ( 1) C  6             0.00590     1.67795
  168. RY ( 2) C  6             0.00118     0.52758
  169. RY ( 3) C  6             0.00115     1.29151
  170. RY ( 4) C  6             0.00066     1.91221
  171. RY ( 5) C  6             0.00065     3.38643
  172. RY ( 6) C  6             0.00030     3.30583
  173. RY ( 7) C  6             0.00012     2.03742
  174. RY ( 8) C  6             0.00006     1.70326
  175. RY ( 9) C  6             0.00002     3.38854
  176. RY (10) C  6             0.00001     3.89956
  177. RY (11) C  6             0.00001     2.20683
  178. RY (12) C  6             0.00000     3.81147
  179. RY (13) C  6             0.00000     4.33637
  180. RY (14) C  6             0.00000     3.09570
  181. RY (15) C  6             0.00000    14.48581
  182. RY (16) C  6             0.00000     1.47439
  183. RY (17) C  6             0.00000     2.31369
  184. RY (18) C  6             0.00000     2.04330
  185. RY (19) C  6             0.00000     1.50259
  186. RY (20) C  6             0.00000     5.86116
  187. RY (21) C  6             0.00000     3.23049
  188. RY (22) C  6             0.00000     3.31282
  189. RY (23) C  6             0.00000     3.30128
  190. RY (24) C  6             0.00000     3.34072
  191. RY (25) C  6             0.00000     3.27023
  192. RY (26) C  6             0.00000     3.23886
  193. RY ( 1) H  7             0.00036     0.78273
  194. RY ( 2) H  7             0.00019     1.82006
  195. RY ( 3) H  7             0.00012     3.14744
  196. RY ( 4) H  7             0.00008     3.04016
  197. RY ( 5) H  7             0.00005     2.78709
  198. RY ( 6) H  7             0.00002     2.89034
  199. RY ( 7) H  7             0.00001     4.99075
  200. RY ( 8) H  7             0.00000     3.57850
  201. RY ( 9) H  7             0.00000     3.28872
  202. RY (10) H  7             0.00000     3.08170
  203. RY (11) H  7             0.00000     3.63404
  204. RY (12) H  7             0.00000     4.53995
  205. RY (13) H  7             0.00000     4.23542
  206. RY ( 1) H  8             0.00037     0.79893
  207. RY ( 2) H  8             0.00019     1.92318
  208. RY ( 3) H  8             0.00017     3.00233
  209. RY ( 4) H  8             0.00008     3.02178
  210. RY ( 5) H  8             0.00005     2.85676
  211. RY ( 6) H  8             0.00002     2.89439
  212. RY ( 7) H  8             0.00001     5.00349
  213. RY ( 8) H  8             0.00000     3.21952
  214. RY ( 9) H  8             0.00000     3.51142
  215. RY (10) H  8             0.00000     3.12022
  216. RY (11) H  8             0.00000     3.59193
  217. RY (12) H  8             0.00000     4.53038
  218. RY (13) H  8             0.00000     4.25173
  219. RY ( 1) H  9             0.00036     0.78273
  220. RY ( 2) H  9             0.00019     1.82006
  221. RY ( 3) H  9             0.00012     3.14744
  222. RY ( 4) H  9             0.00008     3.04016
  223. RY ( 5) H  9             0.00005     2.78709
  224. RY ( 6) H  9             0.00002     2.89034
  225. RY ( 7) H  9             0.00001     4.99075
  226. RY ( 8) H  9             0.00000     3.57850
  227. RY ( 9) H  9             0.00000     3.28872
  228. RY (10) H  9             0.00000     3.08170
  229. RY (11) H  9             0.00000     3.63404
  230. RY (12) H  9             0.00000     4.53995
  231. RY (13) H  9             0.00000     4.23542
  232. RY ( 1) H 10             0.00037     0.79893
  233. RY ( 2) H 10             0.00019     1.92318
  234. RY ( 3) H 10             0.00017     3.00233
  235. RY ( 4) H 10             0.00008     3.02178
  236. RY ( 5) H 10             0.00005     2.85676
  237. RY ( 6) H 10             0.00002     2.89439
  238. RY ( 7) H 10             0.00001     5.00349
  239. RY ( 8) H 10             0.00000     3.21952
  240. RY ( 9) H 10             0.00000     3.51142
  241. RY (10) H 10             0.00000     3.12022
  242. RY (11) H 10             0.00000     3.59193
  243. RY (12) H 10             0.00000     4.53038
  244. RY (13) H 10             0.00000     4.25173
  245. RY ( 1) H 11             0.00037     0.79893
  246. RY ( 2) H 11             0.00019     1.92318
  247. RY ( 3) H 11             0.00017     3.00233
  248. RY ( 4) H 11             0.00008     3.02178
  249. RY ( 5) H 11             0.00005     2.85676
  250. RY ( 6) H 11             0.00002     2.89439
  251. RY ( 7) H 11             0.00001     5.00349
  252. RY ( 8) H 11             0.00000     3.21952
  253. RY ( 9) H 11             0.00000     3.51142
  254. RY (10) H 11             0.00000     3.12022
  255. RY (11) H 11             0.00000     3.59193
  256. RY (12) H 11             0.00000     4.53038
  257. RY (13) H 11             0.00000     4.25173
  258. RY ( 1) H 12             0.00037     0.79893
  259. RY ( 2) H 12             0.00019     1.92318
  260. RY ( 3) H 12             0.00017     3.00233
  261. RY ( 4) H 12             0.00008     3.02178
  262. RY ( 5) H 12             0.00005     2.85676
  263. RY ( 6) H 12             0.00002     2.89439
  264. RY ( 7) H 12             0.00001     5.00349
  265. RY ( 8) H 12             0.00000     3.21952
  266. RY ( 9) H 12             0.00000     3.51142
  267. RY (10) H 12             0.00000     3.12022
  268. RY (11) H 12             0.00000     3.59193
  269. RY (12) H 12             0.00000     4.53038
  270. RY (13) H 12             0.00000     4.25173
          -------------------------------
                 Total Lewis   40.76906  ( 97.0692%)
           Valence non-Lewis    1.16571  (  2.7755%)
           Rydberg non-Lewis    0.06523  (  0.1553%)
          -------------------------------
               Total unit  1   42.00000  (100.0000%)
              Charge unit  1    0.00000

 $CHOOSE
   BOND S 1 2 D 1 6 S 1 7 D 2 3 S 2 12 S 3 4 S 3 8 D 4 5 S 4 9 S 5 6 S 5 10
        S 6 11 END
 $END

 Maximum scratch memory used by NBO was 830036 words
 Maximum scratch memory used by G09NBO was 404685 words

 Read Unf file /scratch/wang/Ph.gjf-3523432/Gau-433.EUF:
 Label Gaussian matrix elements                                         IVers= 1 NLab= 2 Version=EM64L-G09RevE.01
 Title optimized                                                       
 NAtoms=    12 NBasis=   270 NBsUse=   270 ICharg=     0 Multip=     1 NE=    42 Len12L=8 Len4L=8
 Label GAUSSIAN SCALARS                                                 NI= 1 NR= 1 NTot=       1 LenBuf=    2000 N=    1000       1       1       1       1
 Label NPA CHARGES                                                      NI= 0 NR= 1 NTot=      12 LenBuf=    4000 N=      12       0       0       0       0
 Recovered energy= -232.340006883     dipole=      0.000000000000      0.000000000000      0.000000000000
 1\1\GINC-PANORAMIX\SP\RB3LYP\def2TZVPP\C6H6\WANG\27-Dec-2017\0\\# B3LY
 P/Def2TZVPP fchk=All Pop=NBO6Read SCFCYC=250 NOSYMM\\optimized\\0,1\C,
 0,0.,1.39072,0.\C,0,-1.204399,0.69536,0.\C,0,-1.204399,-0.69536,0.\C,0
 ,0.,-1.39072,0.\C,0,1.204399,-0.69536,0.\C,0,1.204399,0.69536,0.\H,0,0
 .,2.472848,0.\H,0,-2.141549,-1.236424,0.\H,0,0.,-2.472848,0.\H,0,2.141
 549,-1.236424,0.\H,0,2.141549,1.236424,0.\H,0,-2.141549,1.236424,0.\\V
 ersion=EM64L-G09RevE.01\HF=-232.3400069\RMSD=4.077e-09\Dipole=0.,0.,0.
 \Quadrupole=1.868061,1.8678796,-3.7359405,0.,0.,0.\PG=D06H [3C2'(H1C1.
 C1H1)]\\@


 Mondays are the potholes in the road of life.
                                -- Tom Wilson
 Job cpu time:       0 days  0 hours 12 minutes 38.6 seconds.
 File lengths (MBytes):  RWF=     41 Int=      0 D2E=      0 Chk=      5 Scr=      1
 Normal termination of Gaussian 09 at Wed Dec 27 17:06:49 2017.
